<UPF version="2.0.1">
  <PP_INFO>

 This pseudopotential file has been produced using the code
 ONCVPSP  (Optimized Norm-Conservinng Vanderbilt PSeudopotential)
 scalar-relativistic version 3.2.2 08/07/2015 by D. R. Hamann
 The code is available through a link at URL www.mat-simresearch.com.
 Documentation with the package provides a full discription of the
 input data below.


 While it is not required under the terms of the GNU GPL, it is
 suggested that you cite D. R. Hamann, Phys. Rev. B 88, 085117 (2013)
 in any publication using these pseudopotentials.

    <PP_INPUTFILE>
# ATOM AND REFERENCE CONFIGURATION
# atsym  z   nc   nv     iexc    psfile
  Nb 41.00    6    4       4      upf
#
#   n    l    f        energy (Ha)
    1    0    2.00
    2    0    2.00
    2    1    6.00
    3    0    2.00
    3    1    6.00
    3    2   10.00
    4    0    2.00
    4    1    6.00
    5    0    2.00
    4    2    3.00
#
# PSEUDOPOTENTIAL AND OPTIMIZATION
# lmax
    2
#
#   l,   rc,     ep,   ncon, nbas, qcut
    0    1.66   -2.24    5    8    7.08
    1    1.62   -1.35    5    8    7.19
    2    1.64   -0.17    5    8    7.39
#
# LOCAL POTENTIAL
# lloc, lpopt,  rc(5),   dvloc0
    4    5      1.46       0.00
#
# VANDERBILT-KLEINMAN-BYLANDER PROJECTORs
# l, nproj, debl
    0    2    2.0633
    1    2    2.0828
    2    2    1.2527
#
# MODEL CORE CHARGE
# icmod, fcfact
    0    0.00
#
# LOG DERIVATIVE ANALYSIS
# epsh1, epsh2, depsh
   -5.00    3.00    0.02
#
# OUTPUT GRID
# rlmax, drl
    6.00    0.01
#
# TEST CONFIGURATIONS
# ncnf
    0
# nvcnf
#   n    l    f
    </PP_INPUTFILE>
  </PP_INFO>
  <!--                               -->
  <!-- END OF HUMAN READABLE SECTION -->
  <!--                               -->
    <PP_HEADER
       generated="Generated using ONCVPSP code by D. R. Hamann"
       author="anonymous"
       date="221025"
       comment="Modified by Emil Briggs to output UPF format on log grid for RMG."
       element="Nb"
       pseudo_type="NC"
       relativistic="scalar"
       is_ultrasoft="F"
       is_paw="F"
       is_coulomb="F"
       has_so="F"
       has_wfc="F"
       has_gipaw="F"
       core_correction="F"
       functional="PBE"
       z_valence="   13.00"
       total_psenergy="  -1.13432433673E+02"
       rho_cutoff="   1.56300000000E+01"
       l_max="2"
       l_local="-1"
       mesh_size="  1267"
       number_of_wfc="4"
       number_of_proj="6"/>
 <PP_MESH>
   <PP_R type="real"  size="1267" columns="4">
  0.121951219512E-04  0.123414634146E-04  0.124895609756E-04  0.126394357073E-04
  0.127911089358E-04  0.129446022430E-04  0.130999374700E-04  0.132571367196E-04
  0.134162223602E-04  0.135772170285E-04  0.137401436329E-04  0.139050253565E-04
  0.140718856608E-04  0.142407482887E-04  0.144116372682E-04  0.145845769154E-04
  0.147595918384E-04  0.149367069404E-04  0.151159474237E-04  0.152973387928E-04
  0.154809068583E-04  0.156666777406E-04  0.158546778735E-04  0.160449340080E-04
  0.162374732161E-04  0.164323228947E-04  0.166295107694E-04  0.168290648986E-04
  0.170310136774E-04  0.172353858415E-04  0.174422104716E-04  0.176515169973E-04
  0.178633352013E-04  0.180776952237E-04  0.182946275664E-04  0.185141630972E-04
  0.187363330543E-04  0.189611690510E-04  0.191887030796E-04  0.194189675165E-04
  0.196519951267E-04  0.198878190683E-04  0.201264728971E-04  0.203679905719E-04
  0.206124064587E-04  0.208597553362E-04  0.211100724003E-04  0.213633932691E-04
  0.216197539883E-04  0.218791910361E-04  0.221417413286E-04  0.224074422245E-04
  0.226763315312E-04  0.229484475096E-04  0.232238288797E-04  0.235025148263E-04
  0.237845450042E-04  0.240699595442E-04  0.243587990588E-04  0.246511046475E-04
  0.249469179032E-04  0.252462809181E-04  0.255492362891E-04  0.258558271246E-04
  0.261660970500E-04  0.264800902147E-04  0.267978512972E-04  0.271194255128E-04
  0.274448586189E-04  0.277741969224E-04  0.281074872854E-04  0.284447771329E-04
  0.287861144585E-04  0.291315478320E-04  0.294811264059E-04  0.298348999228E-04
  0.301929187219E-04  0.305552337466E-04  0.309218965515E-04  0.312929593101E-04
  0.316684748219E-04  0.320484965197E-04  0.324330784780E-04  0.328222754197E-04
  0.332161427247E-04  0.336147364374E-04  0.340181132747E-04  0.344263306340E-04
  0.348394466016E-04  0.352575199608E-04  0.356806102003E-04  0.361087775227E-04
  0.365420828530E-04  0.369805878472E-04  0.374243549014E-04  0.378734471602E-04
  0.383279285261E-04  0.387878636685E-04  0.392533180325E-04  0.397243578489E-04
  0.402010501431E-04  0.406834627448E-04  0.411716642977E-04  0.416657242693E-04
  0.421657129605E-04  0.426717015160E-04  0.431837619342E-04  0.437019670774E-04
  0.442263906824E-04  0.447571073706E-04  0.452941926590E-04  0.458377229709E-04
  0.463877756466E-04  0.469444289543E-04  0.475077621018E-04  0.480778552470E-04
  0.486547895100E-04  0.492386469841E-04  0.498295107479E-04  0.504274648769E-04
  0.510325944554E-04  0.516449855888E-04  0.522647254159E-04  0.528919021209E-04
  0.535266049464E-04  0.541689242057E-04  0.548189512962E-04  0.554767787117E-04
  0.561425000563E-04  0.568162100570E-04  0.574980045776E-04  0.581879806326E-04
  0.588862364002E-04  0.595928712370E-04  0.603079856918E-04  0.610316815201E-04
  0.617640616983E-04  0.625052304387E-04  0.632552932040E-04  0.640143567224E-04
  0.647825290031E-04  0.655599193511E-04  0.663466383834E-04  0.671427980440E-04
  0.679485116205E-04  0.687638937599E-04  0.695890604851E-04  0.704241292109E-04
  0.712692187614E-04  0.721244493865E-04  0.729899427792E-04  0.738658220925E-04
  0.747522119576E-04  0.756492385011E-04  0.765570293631E-04  0.774757137155E-04
  0.784054222801E-04  0.793462873474E-04  0.802984427956E-04  0.812620241092E-04
  0.822371683985E-04  0.832240144193E-04  0.842227025923E-04  0.852333750234E-04
  0.862561755237E-04  0.872912496300E-04  0.883387446255E-04  0.893988095610E-04
  0.904715952758E-04  0.915572544191E-04  0.926559414721E-04  0.937678127698E-04
  0.948930265230E-04  0.960317428413E-04  0.971841237554E-04  0.983503332404E-04
  0.995305372393E-04  0.100724903686E-03  0.101933602530E-03  0.103156805761E-03
  0.104394687430E-03  0.105647423679E-03  0.106915192763E-03  0.108198175076E-03
  0.109496553177E-03  0.110810511815E-03  0.112140237957E-03  0.113485920813E-03
  0.114847751862E-03  0.116225924885E-03  0.117620635983E-03  0.119032083615E-03
  0.120460468619E-03  0.121905994242E-03  0.123368866173E-03  0.124849292567E-03
  0.126347484078E-03  0.127863653887E-03  0.129398017733E-03  0.130950793946E-03
  0.132522203474E-03  0.134112469915E-03  0.135721819554E-03  0.137350481389E-03
  0.138998687166E-03  0.140666671412E-03  0.142354671468E-03  0.144062927526E-03
  0.145791682656E-03  0.147541182848E-03  0.149311677042E-03  0.151103417167E-03
  0.152916658173E-03  0.154751658071E-03  0.156608677968E-03  0.158487982103E-03
  0.160389837889E-03  0.162314515943E-03  0.164262290135E-03  0.166233437616E-03
  0.168228238868E-03  0.170246977734E-03  0.172289941467E-03  0.174357420765E-03
  0.176449709814E-03  0.178567106331E-03  0.180709911607E-03  0.182878430547E-03
  0.185072971713E-03  0.187293847374E-03  0.189541373542E-03  0.191815870025E-03
  0.194117660465E-03  0.196447072391E-03  0.198804437259E-03  0.201190090507E-03
  0.203604371593E-03  0.206047624052E-03  0.208520195540E-03  0.211022437887E-03
  0.213554707142E-03  0.216117363627E-03  0.218710771991E-03  0.221335301255E-03
  0.223991324870E-03  0.226679220768E-03  0.229399371417E-03  0.232152163874E-03
  0.234937989841E-03  0.237757245719E-03  0.240610332668E-03  0.243497656660E-03
  0.246419628539E-03  0.249376664082E-03  0.252369184051E-03  0.255397614260E-03
  0.258462385631E-03  0.261563934258E-03  0.264702701469E-03  0.267879133887E-03
  0.271093683494E-03  0.274346807696E-03  0.277638969388E-03  0.280970637021E-03
  0.284342284665E-03  0.287754392081E-03  0.291207444786E-03  0.294701934123E-03
  0.298238357333E-03  0.301817217621E-03  0.305439024232E-03  0.309104292523E-03
  0.312813544033E-03  0.316567306562E-03  0.320366114240E-03  0.324210507611E-03
  0.328101033702E-03  0.332038246107E-03  0.336022705060E-03  0.340054977521E-03
  0.344135637251E-03  0.348265264898E-03  0.352444448077E-03  0.356673781454E-03
  0.360953866831E-03  0.365285313233E-03  0.369668736992E-03  0.374104761836E-03
  0.378594018978E-03  0.383137147206E-03  0.387734792972E-03  0.392387610488E-03
  0.397096261814E-03  0.401861416956E-03  0.406683753959E-03  0.411563959006E-03
  0.416502726515E-03  0.421500759233E-03  0.426558768344E-03  0.431677473564E-03
  0.436857603246E-03  0.442099894485E-03  0.447405093219E-03  0.452773954338E-03
  0.458207241790E-03  0.463705728691E-03  0.469270197436E-03  0.474901439805E-03
  0.480600257083E-03  0.486367460168E-03  0.492203869690E-03  0.498110316126E-03
  0.504087639919E-03  0.510136691598E-03  0.516258331898E-03  0.522453431880E-03
  0.528722873063E-03  0.535067547540E-03  0.541488358110E-03  0.547986218407E-03
  0.554562053028E-03  0.561216797665E-03  0.567951399237E-03  0.574766816027E-03
  0.581664017820E-03  0.588643986034E-03  0.595707713866E-03  0.602856206432E-03
  0.610090480910E-03  0.617411566681E-03  0.624820505481E-03  0.632318351546E-03
  0.639906171765E-03  0.647585045826E-03  0.655356066376E-03  0.663220339173E-03
  0.671178983243E-03  0.679233131042E-03  0.687383928614E-03  0.695632535758E-03
  0.703980126187E-03  0.712427887701E-03  0.720977022353E-03  0.729628746621E-03
  0.738384291581E-03  0.747244903080E-03  0.756211841917E-03  0.765286384020E-03
  0.774469820628E-03  0.783763458476E-03  0.793168619977E-03  0.802686643417E-03
  0.812318883138E-03  0.822066709736E-03  0.831931510253E-03  0.841914688376E-03
  0.852017664636E-03  0.862241876612E-03  0.872588779131E-03  0.883059844481E-03
  0.893656562614E-03  0.904380441366E-03  0.915233006662E-03  0.926215802742E-03
  0.937330392375E-03  0.948578357084E-03  0.959961297369E-03  0.971480832937E-03
  0.983138602932E-03  0.994936266167E-03  0.100687550136E-02  0.101895800738E-02
  0.103118550347E-02  0.104355972951E-02  0.105608244626E-02  0.106875543562E-02
  0.108158050084E-02  0.109455946685E-02  0.110769418046E-02  0.112098651062E-02
  0.113443834875E-02  0.114805160893E-02  0.116182822824E-02  0.117577016698E-02
  0.118987940898E-02  0.120415796189E-02  0.121860785744E-02  0.123323115172E-02
  0.124802992555E-02  0.126300628465E-02  0.127816236007E-02  0.129350030839E-02
  0.130902231209E-02  0.132473057983E-02  0.134062734679E-02  0.135671487495E-02
  0.137299545345E-02  0.138947139889E-02  0.140614505568E-02  0.142301879635E-02
  0.144009502191E-02  0.145737616217E-02  0.147486467611E-02  0.149256305223E-02
  0.151047380885E-02  0.152859949456E-02  0.154694268850E-02  0.156550600076E-02
  0.158429207277E-02  0.160330357764E-02  0.162254322057E-02  0.164201373922E-02
  0.166171790409E-02  0.168165851894E-02  0.170183842117E-02  0.172226048222E-02
  0.174292760801E-02  0.176384273930E-02  0.178500885217E-02  0.180642895840E-02
  0.182810610590E-02  0.185004337917E-02  0.187224389972E-02  0.189471082652E-02
  0.191744735644E-02  0.194045672471E-02  0.196374220541E-02  0.198730711187E-02
  0.201115479722E-02  0.203528865478E-02  0.205971211864E-02  0.208442866407E-02
  0.210944180803E-02  0.213475510973E-02  0.216037217105E-02  0.218629663710E-02
  0.221253219674E-02  0.223908258311E-02  0.226595157410E-02  0.229314299299E-02
  0.232066070891E-02  0.234850863742E-02  0.237669074106E-02  0.240521102996E-02
  0.243407356232E-02  0.246328244506E-02  0.249284183440E-02  0.252275593642E-02
  0.255302900765E-02  0.258366535575E-02  0.261466934002E-02  0.264604537210E-02
  0.267779791656E-02  0.270993149156E-02  0.274245066946E-02  0.277536007749E-02
  0.280866439842E-02  0.284236837120E-02  0.287647679166E-02  0.291099451316E-02
  0.294592644732E-02  0.298127756468E-02  0.301705289546E-02  0.305325753020E-02
  0.308989662057E-02  0.312697538001E-02  0.316449908457E-02  0.320247307359E-02
  0.324090275047E-02  0.327979358348E-02  0.331915110648E-02  0.335898091976E-02
  0.339928869079E-02  0.344008015508E-02  0.348136111694E-02  0.352313745035E-02
  0.356541509975E-02  0.360820008095E-02  0.365149848192E-02  0.369531646370E-02
  0.373966026127E-02  0.378453618440E-02  0.382995061862E-02  0.387591002604E-02
  0.392242094635E-02  0.396948999771E-02  0.401712387768E-02  0.406532936421E-02
  0.411411331658E-02  0.416348267638E-02  0.421344446850E-02  0.426400580212E-02
  0.431517387175E-02  0.436695595821E-02  0.441935942971E-02  0.447239174286E-02
  0.452606044378E-02  0.458037316910E-02  0.463533764713E-02  0.469096169890E-02
  0.474725323928E-02  0.480422027816E-02  0.486187092149E-02  0.492021337255E-02
  0.497925593302E-02  0.503900700422E-02  0.509947508827E-02  0.516066878933E-02
  0.522259681480E-02  0.528526797658E-02  0.534869119230E-02  0.541287548660E-02
  0.547782999244E-02  0.554356395235E-02  0.561008671978E-02  0.567740776042E-02
  0.574553665354E-02  0.581448309339E-02  0.588425689051E-02  0.595486797319E-02
  0.602632638887E-02  0.609864230554E-02  0.617182601320E-02  0.624588792536E-02
  0.632083858047E-02  0.639668864343E-02  0.647344890715E-02  0.655113029404E-02
  0.662974385757E-02  0.670930078386E-02  0.678981239326E-02  0.687129014198E-02
  0.695374562369E-02  0.703719057117E-02  0.712163685803E-02  0.720709650032E-02
  0.729358165833E-02  0.738110463823E-02  0.746967789388E-02  0.755931402861E-02
  0.765002579695E-02  0.774182610652E-02  0.783472801980E-02  0.792874475603E-02
  0.802388969311E-02  0.812017636942E-02  0.821761848586E-02  0.831622990769E-02
  0.841602466658E-02  0.851701696258E-02  0.861922116613E-02  0.872265182012E-02
  0.882732364196E-02  0.893325152567E-02  0.904045054397E-02  0.914893595050E-02
  0.925872318191E-02  0.936982786009E-02  0.948226579441E-02  0.959605298395E-02
  0.971120561975E-02  0.982774008719E-02  0.994567296824E-02  0.100650210439E-01
  0.101858012964E-01  0.103080309119E-01  0.104317272829E-01  0.105569080103E-01
  0.106835909064E-01  0.108117939973E-01  0.109415355252E-01  0.110728339515E-01
  0.112057079590E-01  0.113401764545E-01  0.114762585719E-01  0.116139736748E-01
  0.117533413589E-01  0.118943814552E-01  0.120371140327E-01  0.121815594010E-01
  0.123277381139E-01  0.124756709712E-01  0.126253790229E-01  0.127768835712E-01
  0.129302061740E-01  0.130853686481E-01  0.132423930719E-01  0.134013017887E-01
  0.135621174102E-01  0.137248628191E-01  0.138895611730E-01  0.140562359070E-01
  0.142249107379E-01  0.143956096668E-01  0.145683569828E-01  0.147431772666E-01
  0.149200953938E-01  0.150991365385E-01  0.152803261769E-01  0.154636900911E-01
  0.156492543722E-01  0.158370454246E-01  0.160270899697E-01  0.162194150494E-01
  0.164140480300E-01  0.166110166063E-01  0.168103488056E-01  0.170120729913E-01
  0.172162178672E-01  0.174228124816E-01  0.176318862313E-01  0.178434688661E-01
  0.180575904925E-01  0.182742815784E-01  0.184935729574E-01  0.187154958328E-01
  0.189400817828E-01  0.191673627642E-01  0.193973711174E-01  0.196301395708E-01
  0.198657012457E-01  0.201040896606E-01  0.203453387365E-01  0.205894828014E-01
  0.208365565950E-01  0.210865952741E-01  0.213396344174E-01  0.215957100304E-01
  0.218548585508E-01  0.221171168534E-01  0.223825222556E-01  0.226511125227E-01
  0.229229258730E-01  0.231980009835E-01  0.234763769953E-01  0.237580935192E-01
  0.240431906414E-01  0.243317089291E-01  0.246236894363E-01  0.249191737095E-01
  0.252182037940E-01  0.255208222396E-01  0.258270721064E-01  0.261369969717E-01
  0.264506409354E-01  0.267680486266E-01  0.270892652101E-01  0.274143363926E-01
  0.277433084294E-01  0.280762281305E-01  0.284131428681E-01  0.287541005825E-01
  0.290991497895E-01  0.294483395870E-01  0.298017196620E-01  0.301593402979E-01
  0.305212523815E-01  0.308875074101E-01  0.312581574990E-01  0.316332553890E-01
  0.320128544537E-01  0.323970087071E-01  0.327857728116E-01  0.331792020853E-01
  0.335773525104E-01  0.339802807405E-01  0.343880441094E-01  0.348007006387E-01
  0.352183090464E-01  0.356409287549E-01  0.360686199000E-01  0.365014433388E-01
  0.369394606588E-01  0.373827341867E-01  0.378313269970E-01  0.382853029209E-01
  0.387447265560E-01  0.392096632747E-01  0.396801792340E-01  0.401563413848E-01
  0.406382174814E-01  0.411258760912E-01  0.416193866043E-01  0.421188192435E-01
  0.426242450744E-01  0.431357360153E-01  0.436533648475E-01  0.441772052257E-01
  0.447073316884E-01  0.452438196686E-01  0.457867455047E-01  0.463361864507E-01
  0.468922206881E-01  0.474549273364E-01  0.480243864644E-01  0.486006791020E-01
  0.491838872512E-01  0.497740938982E-01  0.503713830250E-01  0.509758396213E-01
  0.515875496968E-01  0.522066002931E-01  0.528330794967E-01  0.534670764506E-01
  0.541086813680E-01  0.547579855444E-01  0.554150813710E-01  0.560800623474E-01
  0.567530230956E-01  0.574340593727E-01  0.581232680852E-01  0.588207473022E-01
  0.595265962699E-01  0.602409154251E-01  0.609638064102E-01  0.616953720871E-01
  0.624357165522E-01  0.631849451508E-01  0.639431644926E-01  0.647104824665E-01
  0.654870082561E-01  0.662728523552E-01  0.670681265834E-01  0.678729441025E-01
  0.686874194317E-01  0.695116684649E-01  0.703458084864E-01  0.711899581883E-01
  0.720442376865E-01  0.729087685388E-01  0.737836737612E-01  0.746690778464E-01
  0.755651067805E-01  0.764718880619E-01  0.773895507186E-01  0.783182253273E-01
  0.792580440312E-01  0.802091405596E-01  0.811716502463E-01  0.821457100492E-01
  0.831314585698E-01  0.841290360727E-01  0.851385845055E-01  0.861602475196E-01
  0.871941704898E-01  0.882405005357E-01  0.892993865421E-01  0.903709791806E-01
  0.914554309308E-01  0.925528961020E-01  0.936635308552E-01  0.947874932255E-01
  0.959249431442E-01  0.970760424619E-01  0.982409549715E-01  0.994198464311E-01
  0.100612884588E+00  0.101820239203E+00  0.103042082074E+00  0.104278587059E+00
  0.105529930103E+00  0.106796289265E+00  0.108077844736E+00  0.109374778873E+00
  0.110687276219E+00  0.112015523534E+00  0.113359709816E+00  0.114720026334E+00
  0.116096666650E+00  0.117489826650E+00  0.118899704570E+00  0.120326501024E+00
  0.121770419037E+00  0.123231664065E+00  0.124710444034E+00  0.126206969362E+00
  0.127721452995E+00  0.129254110431E+00  0.130805159756E+00  0.132374821673E+00
  0.133963319533E+00  0.135570879367E+00  0.137197729920E+00  0.138844102679E+00
  0.140510231911E+00  0.142196354694E+00  0.143902710950E+00  0.145629543482E+00
  0.147377098003E+00  0.149145623179E+00  0.150935370657E+00  0.152746595105E+00
  0.154579554247E+00  0.156434508898E+00  0.158311723004E+00  0.160211463680E+00
  0.162134001245E+00  0.164079609260E+00  0.166048564571E+00  0.168041147345E+00
  0.170057641114E+00  0.172098332807E+00  0.174163512801E+00  0.176253474954E+00
  0.178368516654E+00  0.180508938854E+00  0.182675046120E+00  0.184867146673E+00
  0.187085552433E+00  0.189330579063E+00  0.191602546011E+00  0.193901776563E+00
  0.196228597882E+00  0.198583341057E+00  0.200966341149E+00  0.203377937243E+00
  0.205818472490E+00  0.208288294160E+00  0.210787753690E+00  0.213317206734E+00
  0.215877013215E+00  0.218467537374E+00  0.221089147822E+00  0.223742217596E+00
  0.226427124207E+00  0.229144249698E+00  0.231893980694E+00  0.234676708462E+00
  0.237492828964E+00  0.240342742911E+00  0.243226855826E+00  0.246145578096E+00
  0.249099325033E+00  0.252088516934E+00  0.255113579137E+00  0.258174942087E+00
  0.261273041392E+00  0.264408317888E+00  0.267581217703E+00  0.270792192316E+00
  0.274041698623E+00  0.277330199007E+00  0.280658161395E+00  0.284026059332E+00
  0.287434372044E+00  0.290883584508E+00  0.294374187522E+00  0.297906677772E+00
  0.301481557906E+00  0.305099336601E+00  0.308760528640E+00  0.312465654983E+00
  0.316215242843E+00  0.320009825757E+00  0.323849943667E+00  0.327736142991E+00
  0.331668976706E+00  0.335649004427E+00  0.339676792480E+00  0.343752913990E+00
  0.347877948958E+00  0.352052484345E+00  0.356277114157E+00  0.360552439527E+00
  0.364879068801E+00  0.369257617627E+00  0.373688709039E+00  0.378172973547E+00
  0.382711049230E+00  0.387303581820E+00  0.391951224802E+00  0.396654639500E+00
  0.401414495174E+00  0.406231469116E+00  0.411106246745E+00  0.416039521706E+00
  0.421031995967E+00  0.426084379918E+00  0.431197392477E+00  0.436371761187E+00
  0.441608222321E+00  0.446907520989E+00  0.452270411241E+00  0.457697656176E+00
  0.463190028050E+00  0.468748308387E+00  0.474373288087E+00  0.480065767544E+00
  0.485826556755E+00  0.491656475436E+00  0.497556353141E+00  0.503527029379E+00
  0.509569353731E+00  0.515684185976E+00  0.521872396208E+00  0.528134864962E+00
  0.534472483342E+00  0.540886153142E+00  0.547376786980E+00  0.553945308424E+00
  0.560592652125E+00  0.567319763950E+00  0.574127601118E+00  0.581017132331E+00
  0.587989337919E+00  0.595045209974E+00  0.602185752494E+00  0.609411981524E+00
  0.616724925302E+00  0.624125624405E+00  0.631615131898E+00  0.639194513481E+00
  0.646864847643E+00  0.654627225815E+00  0.662482752524E+00  0.670432545555E+00
  0.678477736101E+00  0.686619468935E+00  0.694858902562E+00  0.703197209392E+00
  0.711635575905E+00  0.720175202816E+00  0.728817305250E+00  0.737563112913E+00
  0.746413870268E+00  0.755370836711E+00  0.764435286752E+00  0.773608510193E+00
  0.782891812315E+00  0.792286514063E+00  0.801793952231E+00  0.811415479658E+00
  0.821152465414E+00  0.831006294999E+00  0.840978370539E+00  0.851070110986E+00
  0.861282952317E+00  0.871618347745E+00  0.882077767918E+00  0.892662701133E+00
  0.903374653547E+00  0.914215149389E+00  0.925185731182E+00  0.936287959956E+00
  0.947523415476E+00  0.958893696461E+00  0.970400420819E+00  0.982045225869E+00
  0.993829768579E+00  0.100575572580E+01  0.101782479451E+01  0.103003869205E+01
  0.104239915635E+01  0.105490794623E+01  0.106756684158E+01  0.108037764368E+01
  0.109334217540E+01  0.110646228151E+01  0.111973982889E+01  0.113317670683E+01
  0.114677482732E+01  0.116053612524E+01  0.117446255875E+01  0.118855610945E+01
  0.120281878277E+01  0.121725260816E+01  0.123185963946E+01  0.124664195513E+01
  0.126160165859E+01  0.127674087849E+01  0.129206176904E+01  0.130756651026E+01
  0.132325730839E+01  0.133913639609E+01  0.135520603284E+01  0.137146850524E+01
  0.138792612730E+01  0.140458124083E+01  0.142143621572E+01  0.143849345030E+01
  0.145575537171E+01  0.147322443617E+01  0.149090312940E+01  0.150879396696E+01
  0.152689949456E+01  0.154522228849E+01  0.156376495596E+01  0.158253013543E+01
  0.160152049705E+01  0.162073874302E+01  0.164018760793E+01  0.165986985923E+01
  0.167978829754E+01  0.169994575711E+01  0.172034510619E+01  0.174098924747E+01
  0.176188111844E+01  0.178302369186E+01  0.180441997616E+01  0.182607301588E+01
  0.184798589207E+01  0.187016172277E+01  0.189260366344E+01  0.191531490741E+01
  0.193829868630E+01  0.196155827053E+01  0.198509696978E+01  0.200891813341E+01
  0.203302515102E+01  0.205742145283E+01  0.208211051026E+01  0.210709583638E+01
  0.213238098642E+01  0.215796955826E+01  0.218386519296E+01  0.221007157527E+01
  0.223659243418E+01  0.226343154339E+01  0.229059272191E+01  0.231807983457E+01
  0.234589679258E+01  0.237404755410E+01  0.240253612474E+01  0.243136655824E+01
  0.246054295694E+01  0.249006947242E+01  0.251995030609E+01  0.255018970977E+01
  0.258079198628E+01  0.261176149012E+01  0.264310262800E+01  0.267481985954E+01
  0.270691769785E+01  0.273940071022E+01  0.277227351875E+01  0.280554080097E+01
  0.283920729058E+01  0.287327777807E+01  0.290775711141E+01  0.294265019674E+01
  0.297796199911E+01  0.301369754310E+01  0.304986191361E+01  0.308646025658E+01
  0.312349777965E+01  0.316097975301E+01  0.319891151005E+01  0.323729844817E+01
  0.327614602955E+01  0.331545978190E+01  0.335524529928E+01  0.339550824287E+01
  0.343625434179E+01  0.347748939389E+01  0.351921926662E+01  0.356144989782E+01
  0.360418729659E+01  0.364743754415E+01  0.369120679468E+01  0.373550127621E+01
  0.378032729153E+01  0.382569121903E+01  0.387159951366E+01  0.391805870782E+01
  0.396507541231E+01  0.401265631726E+01  0.406080819307E+01  0.410953789139E+01
  0.415885234608E+01  0.420875857423E+01  0.425926367713E+01  0.431037484125E+01
  0.436209933935E+01  0.441444453142E+01  0.446741786580E+01  0.452102688018E+01
  0.457527920275E+01  0.463018255318E+01  0.468574474382E+01  0.474197368074E+01
  0.479887736491E+01  0.485646389329E+01  0.491474146001E+01  0.497371835753E+01
  0.503340297782E+01  0.509380381356E+01  0.515492945932E+01  0.521678861283E+01
  0.527939007618E+01  0.534274275710E+01  0.540685567018E+01  0.547173793823E+01
  0.553739879348E+01  0.560384757901E+01  0.567109374995E+01  0.573914687495E+01
  0.580801663745E+01  0.587771283710E+01  0.594824539115E+01  0.601962433584E+01
  0.609185982787E+01  0.616496214581E+01  0.623894169156E+01  0.631380899185E+01
  0.638957469976E+01  0.646624959615E+01  0.654384459131E+01  0.662237072640E+01
  0.670183917512E+01  0.678226124522E+01  0.686364838016E+01  0.694601216073E+01
  0.702936430666E+01  0.711371667834E+01  0.719908127848E+01  0.728547025382E+01
  0.737289589686E+01  0.746137064763E+01  0.755090709540E+01  0.764151798054E+01
  0.773321619631E+01  0.782601479066E+01  0.791992696815E+01  0.801496609177E+01
  0.811114568487E+01  0.820847943309E+01  0.830698118629E+01  0.840666496052E+01
  0.850754494005E+01  0.860963547933E+01  0.871295110508E+01  0.881750651834E+01
  0.892331659656E+01  0.903039639572E+01  0.913876115247E+01  0.924842628630E+01
  0.935940740173E+01  0.947172029055E+01  0.958538093404E+01  0.970040550525E+01
  0.981681037131E+01  0.993461209577E+01  0.100538274409E+02  0.101744733702E+02
  0.102965670507E+02  0.104201258553E+02  0.105451673655E+02  0.106717093739E+02
  0.107997698864E+02  0.109293671250E+02  0.110605195305E+02  0.111932457649E+02
  0.113275647141E+02  0.114634954906E+02  0.116010574365E+02  0.117402701258E+02
  0.118811533673E+02  0.120237272077E+02  0.121680119342E+02  0.123140280774E+02
  0.124617964143E+02  0.126113379713E+02  0.127626740269E+02  0.129158261153E+02
  0.130708160287E+02  0.132276658210E+02  0.133863978109E+02  0.135470345846E+02
  0.137095989996E+02  0.138741141876E+02  0.140406035578E+02  0.142090908005E+02
  0.143795998901E+02  0.145521550888E+02  0.147267809499E+02  0.149035023213E+02
  0.150823443491E+02  0.152633324813E+02  0.154464924711E+02  0.156318503808E+02
  0.158194325853E+02  0.160092657764E+02  0.162013769657E+02  0.163957934893E+02
  0.165925430111E+02  0.167916535273E+02  0.169931533696E+02  0.171970712100E+02
  0.174034360645E+02  0.176122772973E+02  0.178236246249E+02  0.180375081204E+02
  0.182539582178E+02  0.184730057164E+02  0.186946817850E+02  0.189190179665E+02
  0.191460461821E+02  0.193757987362E+02  0.196083083211E+02  0.198436080209E+02
  0.200817313172E+02  0.203227120930E+02  0.205665846381E+02  0.208133836538E+02
  0.210631442576E+02  0.213159019887E+02  0.215716928126E+02  0.218305531263E+02
  0.220925197638E+02  0.223576300010E+02  0.226259215610E+02  0.228974326197E+02
  0.231722018112E+02  0.234502682329E+02  0.237316714517E+02  0.240164515091E+02
  0.243046489272E+02  0.245963047144E+02  0.248914603709E+02  0.251901578954E+02
  0.254924397901E+02  0.257983490676E+02  0.261079292564E+02  0.264212244075E+02
  0.267382791004E+02  0.270591384496E+02  0.273838481110E+02  0.277124542883E+02
  0.280450037398E+02  0.283815437847E+02  0.287221223101E+02  0.290667877778E+02
  0.294155892311E+02  0.297685763019E+02  0.301257992175E+02  0.304873088081E+02
  0.308531565138E+02  0.312233943920E+02  0.315980751247E+02  0.319772520262E+02
  0.323609790505E+02  0.327493107991E+02  0.331423025287E+02  0.335400101591E+02
  0.339424902810E+02  0.343498001643E+02  0.347619977663E+02  0.351791417395E+02
  0.356012914404E+02  0.360285069377E+02  0.364608490209E+02  0.368983792092E+02
  0.373411597597E+02  0.377892536768E+02  0.382427247209E+02  0.387016374176E+02
  0.391660570666E+02  0.396360497514E+02  0.401116823484E+02  0.405930225366E+02
  0.410801388070E+02  0.415731004727E+02  0.420719776784E+02  0.425768414105E+02
  0.430877635074E+02  0.436048166695E+02  0.441280744696E+02
   </PP_R>
   <PP_RAB type="real"  size="1267" columns="4">
  0.145470376406E-06  0.147216020923E-06  0.148982613174E-06  0.150770404532E-06
  0.152579649386E-06  0.154410605179E-06  0.156263532441E-06  0.158138694830E-06
  0.160036359168E-06  0.161956795478E-06  0.163900277024E-06  0.165867080348E-06
  0.167857485312E-06  0.169871775136E-06  0.171910236438E-06  0.173973159275E-06
  0.176060837186E-06  0.178173567233E-06  0.180311650039E-06  0.182475389840E-06
  0.184665094518E-06  0.186881075652E-06  0.189123648560E-06  0.191393132343E-06
  0.193689849931E-06  0.196014128130E-06  0.198366297668E-06  0.200746693240E-06
  0.203155653558E-06  0.205593521401E-06  0.208060643658E-06  0.210557371382E-06
  0.213084059838E-06  0.215641068557E-06  0.218228761379E-06  0.220847506516E-06
  0.223497676594E-06  0.226179648713E-06  0.228893804498E-06  0.231640530152E-06
  0.234420216513E-06  0.237233259112E-06  0.240080058221E-06  0.242961018920E-06
  0.245876551147E-06  0.248827069760E-06  0.251812994597E-06  0.254834750533E-06
  0.257892767539E-06  0.260987480749E-06  0.264119330518E-06  0.267288762485E-06
  0.270496227635E-06  0.273742182366E-06  0.277027088555E-06  0.280351413617E-06
  0.283715630581E-06  0.287120218148E-06  0.290565660765E-06  0.294052448695E-06
  0.297581078079E-06  0.301152051016E-06  0.304765875628E-06  0.308423066136E-06
  0.312124142929E-06  0.315869632644E-06  0.319660068236E-06  0.323495989055E-06
  0.327377940924E-06  0.331306476215E-06  0.335282153929E-06  0.339305539776E-06
  0.343377206254E-06  0.347497732729E-06  0.351667705521E-06  0.355887717988E-06
  0.360158370604E-06  0.364480271051E-06  0.368854034303E-06  0.373280282715E-06
  0.377759646108E-06  0.382292761861E-06  0.386880275003E-06  0.391522838303E-06
  0.396221112363E-06  0.400975765711E-06  0.405787474900E-06  0.410656924599E-06