<UPF version="2.0.1">
  <PP_INFO>

 This pseudopotential file has been produced using the code
 ONCVPSP  (Optimized Norm-Conservinng Vanderbilt PSeudopotential)
 scalar-relativistic version 3.2.2 08/07/2015 by D. R. Hamann
 The code is available through a link at URL www.mat-simresearch.com.
 Documentation with the package provides a full discription of the
 input data below.


 While it is not required under the terms of the GNU GPL, it is
 suggested that you cite D. R. Hamann, Phys. Rev. B 88, 085117 (2013)
 in any publication using these pseudopotentials.

    <PP_INPUTFILE>
# ATOM AND REFERENCE CONFIGURATION
# atsym  z   nc   nv     iexc    psfile
  Se 34.00    6    2       4      upf
#
#   n    l    f        energy (Ha)
    1    0    2.00
    2    0    2.00
    2    1    6.00
    3    0    2.00
    3    1    6.00
    3    2   10.00
    4    0    2.00
    4    1    4.00
#
# PSEUDOPOTENTIAL AND OPTIMIZATION
# lmax
    2
#
#   l,   rc,     ep,   ncon, nbas, qcut
    0    2.63   -0.64    5    8    6.80
    1    2.73   -0.24    5    8    5.39
    2    3.34    0.12    5    8    4.12
#
# LOCAL POTENTIAL
# lloc, lpopt,  rc(5),   dvloc0
    4    5      1.45       0.00
#
# VANDERBILT-KLEINMAN-BYLANDER PROJECTORs
# l, nproj, debl
    0    2    0.8706
    1    2    0.4883
    2    2    1.3886
#
# MODEL CORE CHARGE
# icmod, fcfact
    0    0.00
#
# LOG DERIVATIVE ANALYSIS
# epsh1, epsh2, depsh
   -5.00    3.00    0.02
#
# OUTPUT GRID
# rlmax, drl
    6.00    0.01
#
# TEST CONFIGURATIONS
# ncnf
    0
# nvcnf
#   n    l    f
    </PP_INPUTFILE>
  </PP_INFO>
  <!--                               -->
  <!-- END OF HUMAN READABLE SECTION -->
  <!--                               -->
    <PP_HEADER
       generated="Generated using ONCVPSP code by D. R. Hamann"
       author="anonymous"
       date="221025"
       comment="Modified by Emil Briggs to output UPF format on log grid for RMG."
       element="Se"
       pseudo_type="NC"
       relativistic="scalar"
       is_ultrasoft="F"
       is_paw="F"
       is_coulomb="F"
       has_so="F"
       has_wfc="F"
       has_gipaw="F"
       core_correction="F"
       functional="PBE"
       z_valence="    6.00"
       total_psenergy="  -1.86509524178E+01"
       rho_cutoff="   1.21300000000E+01"
       l_max="2"
       l_local="-1"
       mesh_size="  1251"
       number_of_wfc="2"
       number_of_proj="6"/>
 <PP_MESH>
   <PP_R type="real"  size="1251" columns="4">
  0.147058823529E-04  0.148823529412E-04  0.150609411765E-04  0.152416724706E-04
  0.154245725402E-04  0.156096674107E-04  0.157969834196E-04  0.159865472207E-04
  0.161783857873E-04  0.163725264168E-04  0.165689967338E-04  0.167678246946E-04
  0.169690385909E-04  0.171726670540E-04  0.173787390587E-04  0.175872839274E-04
  0.177983313345E-04  0.180119113105E-04  0.182280542462E-04  0.184467908972E-04
  0.186681523880E-04  0.188921702166E-04  0.191188762592E-04  0.193483027743E-04
  0.195804824076E-04  0.198154481965E-04  0.200532335749E-04  0.202938723778E-04
  0.205373988463E-04  0.207838476324E-04  0.210332538040E-04  0.212856528497E-04
  0.215410806839E-04  0.217995736521E-04  0.220611685359E-04  0.223259025583E-04
  0.225938133890E-04  0.228649391497E-04  0.231393184195E-04  0.234169902405E-04
  0.236979941234E-04  0.239823700529E-04  0.242701584935E-04  0.245614003955E-04
  0.248561372002E-04  0.251544108466E-04  0.254562637768E-04  0.257617389421E-04
  0.260708798094E-04  0.263837303671E-04  0.267003351315E-04  0.270207391531E-04
  0.273449880229E-04  0.276731278792E-04  0.280052054138E-04  0.283412678787E-04
  0.286813630933E-04  0.290255394504E-04  0.293738459238E-04  0.297263320749E-04
  0.300830480598E-04  0.304440446365E-04  0.308093731721E-04  0.311790856502E-04
  0.315532346780E-04  0.319318734941E-04  0.323150559761E-04  0.327028366478E-04
  0.330952706876E-04  0.334924139358E-04  0.338943229030E-04  0.343010547779E-04
  0.347126674352E-04  0.351292194444E-04  0.355507700778E-04  0.359773793187E-04
  0.364091078705E-04  0.368460171650E-04  0.372881693709E-04  0.377356274034E-04
  0.381884549322E-04  0.386467163914E-04  0.391104769881E-04  0.395798027120E-04
  0.400547603445E-04  0.405354174687E-04  0.410218424783E-04  0.415141045880E-04
  0.420122738431E-04  0.425164211292E-04  0.430266181827E-04  0.435429376009E-04
  0.440654528521E-04  0.445942382864E-04  0.451293691458E-04  0.456709215756E-04
  0.462189726345E-04  0.467736003061E-04  0.473348835098E-04  0.479029021119E-04
  0.484777369372E-04  0.490594697805E-04  0.496481834178E-04  0.502439616188E-04
  0.508468891583E-04  0.514570518282E-04  0.520745364501E-04  0.526994308875E-04
  0.533318240581E-04  0.539718059468E-04  0.546194676182E-04  0.552749012296E-04
  0.559382000444E-04  0.566094584449E-04  0.572887719463E-04  0.579762372096E-04
  0.586719520561E-04  0.593760154808E-04  0.600885276666E-04  0.608095899986E-04
  0.615393050786E-04  0.622777767395E-04  0.630251100604E-04  0.637814113811E-04
  0.645467883177E-04  0.653213497775E-04  0.661052059748E-04  0.668984684465E-04
  0.677012500679E-04  0.685136650687E-04  0.693358290495E-04  0.701678589981E-04
  0.710098733061E-04  0.718619917857E-04  0.727243356872E-04  0.735970277154E-04
  0.744801920480E-04  0.753739543526E-04  0.762784418048E-04  0.771937831065E-04
  0.781201085037E-04  0.790575498058E-04  0.800062404035E-04  0.809663152883E-04
  0.819379110718E-04  0.829211660046E-04  0.839162199967E-04  0.849232146366E-04
  0.859422932123E-04  0.869736007308E-04  0.880172839396E-04  0.890734913469E-04
  0.901423732430E-04  0.912240817220E-04  0.923187707026E-04  0.934265959510E-04
  0.945477151025E-04  0.956822876837E-04  0.968304751359E-04  0.979924408375E-04
  0.991683501276E-04  0.100358370329E-03  0.101562670773E-03  0.102781422822E-03
  0.104014799896E-03  0.105262977495E-03  0.106526133225E-03  0.107804446824E-03
  0.109098100185E-03  0.110407277388E-03  0.111732164716E-03  0.113072950693E-03
  0.114429826101E-03  0.115802984014E-03  0.117192619823E-03  0.118598931261E-03
  0.120022118436E-03  0.121462383857E-03  0.122919932463E-03  0.124394971653E-03
  0.125887711313E-03  0.127398363848E-03  0.128927144214E-03  0.130474269945E-03
  0.132039961184E-03  0.133624440719E-03  0.135227934007E-03  0.136850669215E-03
  0.138492877246E-03  0.140154791773E-03  0.141836649274E-03  0.143538689065E-03
  0.145261153334E-03  0.147004287174E-03  0.148768338620E-03  0.150553558684E-03
  0.152360201388E-03  0.154188523805E-03  0.156038786090E-03  0.157911251523E-03
  0.159806186542E-03  0.161723860780E-03  0.163664547109E-03  0.165628521675E-03
  0.167616063935E-03  0.169627456702E-03  0.171662986183E-03  0.173722942017E-03
  0.175807617321E-03  0.177917308729E-03  0.180052316434E-03  0.182212944231E-03
  0.184399499561E-03  0.186612293556E-03  0.188851641079E-03  0.191117860772E-03
  0.193411275101E-03  0.195732210402E-03  0.198080996927E-03  0.200457968890E-03
  0.202863464517E-03  0.205297826091E-03  0.207761400004E-03  0.210254536804E-03
  0.212777591246E-03  0.215330922341E-03  0.217914893409E-03  0.220529872130E-03
  0.223176230595E-03  0.225854345363E-03  0.228564597507E-03  0.231307372677E-03
  0.234083061149E-03  0.236892057883E-03  0.239734762578E-03  0.242611579729E-03
  0.245522918685E-03  0.248469193709E-03  0.251450824034E-03  0.254468233922E-03
  0.257521852729E-03  0.260612114962E-03  0.263739460342E-03  0.266904333866E-03
  0.270107185872E-03  0.273348472103E-03  0.276628653768E-03  0.279948197613E-03
  0.283307575985E-03  0.286707266896E-03  0.290147754099E-03  0.293629527148E-03
  0.297153081474E-03  0.300718918452E-03  0.304327545473E-03  0.307979476019E-03
  0.311675229731E-03  0.315415332488E-03  0.319200316478E-03  0.323030720275E-03
  0.326907088919E-03  0.330829973986E-03  0.334799933674E-03  0.338817532878E-03
  0.342883343272E-03  0.346997943391E-03  0.351161918712E-03  0.355375861737E-03
  0.359640372078E-03  0.363956056542E-03  0.368323529221E-03  0.372743411572E-03
  0.377216332511E-03  0.381742928501E-03  0.386323843643E-03  0.390959729766E-03
  0.395651246524E-03  0.400399061482E-03  0.405203850220E-03  0.410066296422E-03
  0.414987091979E-03  0.419966937083E-03  0.425006540328E-03  0.430106618812E-03
  0.435267898238E-03  0.440491113017E-03  0.445777006373E-03  0.451126330449E-03
  0.456539846415E-03  0.462018324572E-03  0.467562544467E-03  0.473173295000E-03
  0.478851374540E-03  0.484597591035E-03  0.490412762127E-03  0.496297715273E-03
  0.502253287856E-03  0.508280327310E-03  0.514379691238E-03  0.520552247533E-03
  0.526798874503E-03  0.533120460997E-03  0.539517906529E-03  0.545992121407E-03
  0.552544026864E-03  0.559174555187E-03  0.565884649849E-03  0.572675265647E-03
  0.579547368835E-03  0.586501937261E-03  0.593539960508E-03  0.600662440034E-03
  0.607870389314E-03  0.615164833986E-03  0.622546811994E-03  0.630017373738E-03
  0.637577582223E-03  0.645228513210E-03  0.652971255368E-03  0.660806910432E-03
  0.668736593358E-03  0.676761432478E-03  0.684882569668E-03  0.693101160504E-03
  0.701418374430E-03  0.709835394923E-03  0.718353419662E-03  0.726973660698E-03
  0.735697344626E-03  0.744525712762E-03  0.753460021315E-03  0.762501541571E-03
  0.771651560070E-03  0.780911378790E-03  0.790282315336E-03  0.799765703120E-03
  0.809362891557E-03  0.819075246256E-03  0.828904149211E-03  0.838850999002E-03
  0.848917210990E-03  0.859104217522E-03  0.869413468132E-03  0.879846429749E-03
  0.890404586906E-03  0.901089441949E-03  0.911902515253E-03  0.922845345436E-03
  0.933919489581E-03  0.945126523456E-03  0.956468041737E-03  0.967945658238E-03
  0.979561006137E-03  0.991315738211E-03  0.100321152707E-02  0.101525006539E-02
  0.102743306618E-02  0.103976226297E-02  0.105223941013E-02  0.106486628305E-02
  0.107764467845E-02  0.109057641459E-02  0.110366333156E-02  0.111690729154E-02
  0.113031017904E-02  0.114387390119E-02  0.115760038800E-02  0.117149159266E-02
  0.118554949177E-02  0.119977608567E-02  0.121417339870E-02  0.122874347948E-02
  0.124348840124E-02  0.125841026205E-02  0.127351118520E-02  0.128879331942E-02
  0.130425883925E-02  0.131990994532E-02  0.133574886467E-02  0.135177785104E-02
  0.136799918526E-02  0.138441517548E-02  0.140102815759E-02  0.141784049548E-02
  0.143485458142E-02  0.145207283640E-02  0.146949771044E-02  0.148713168296E-02
  0.150497726316E-02  0.152303699032E-02  0.154131343420E-02  0.155980919541E-02
  0.157852690575E-02  0.159746922862E-02  0.161663885937E-02  0.163603852568E-02
  0.165567098799E-02  0.167553903984E-02  0.169564550832E-02  0.171599325442E-02
  0.173658517347E-02  0.175742419556E-02  0.177851328590E-02  0.179985544533E-02
  0.182145371068E-02  0.184331115521E-02  0.186543088907E-02  0.188781605974E-02
  0.191046985245E-02  0.193339549068E-02  0.195659623657E-02  0.198007539141E-02
  0.200383629611E-02  0.202788233166E-02  0.205221691964E-02  0.207684352268E-02
  0.210176564495E-02  0.212698683269E-02  0.215251067468E-02  0.217834080278E-02
  0.220448089241E-02  0.223093466312E-02  0.225770587908E-02  0.228479834962E-02
  0.231221592982E-02  0.233996252098E-02  0.236804207123E-02  0.239645857608E-02
  0.242521607900E-02  0.245431867195E-02  0.248377049601E-02  0.251357574196E-02
  0.254373865086E-02  0.257426351467E-02  0.260515467685E-02  0.263641653297E-02
  0.266805353137E-02  0.270007017375E-02  0.273247101583E-02  0.276526066802E-02
  0.279844379604E-02  0.283202512159E-02  0.286600942305E-02  0.290040153612E-02
  0.293520635456E-02  0.297042883081E-02  0.300607397678E-02  0.304214686450E-02
  0.307865262688E-02  0.311559645840E-02  0.315298361590E-02  0.319081941929E-02
  0.322910925232E-02  0.326785856335E-02  0.330707286611E-02  0.334675774050E-02
  0.338691883339E-02  0.342756185939E-02  0.346869260170E-02  0.351031691292E-02
  0.355244071588E-02  0.359507000447E-02  0.363821084452E-02  0.368186937466E-02
  0.372605180715E-02  0.377076442884E-02  0.381601360199E-02  0.386180576521E-02
  0.390814743439E-02  0.395504520361E-02  0.400250574605E-02  0.405053581500E-02
  0.409914224478E-02  0.414833195172E-02  0.419811193514E-02  0.424848927836E-02
  0.429947114970E-02  0.435106480350E-02  0.440327758114E-02  0.445611691211E-02
  0.450959031506E-02  0.456370539884E-02  0.461846986363E-02  0.467389150199E-02
  0.472997820001E-02  0.478673793841E-02  0.484417879367E-02  0.490230893920E-02
  0.496113664647E-02  0.502067028623E-02  0.508091832966E-02  0.514188934962E-02
  0.520359202181E-02  0.526603512607E-02  0.532922754759E-02  0.539317827816E-02
  0.545789641750E-02  0.552339117451E-02  0.558967186860E-02  0.565674793102E-02
  0.572462890619E-02  0.579332445307E-02  0.586284434651E-02  0.593319847866E-02
  0.600439686041E-02  0.607644962273E-02  0.614936701821E-02  0.622315942242E-02
  0.629783733549E-02  0.637341138352E-02  0.644989232012E-02  0.652729102796E-02
  0.660561852030E-02  0.668488594254E-02  0.676510457385E-02  0.684628582874E-02
  0.692844125868E-02  0.701158255379E-02  0.709572154443E-02  0.718087020297E-02
  0.726704064540E-02  0.735424513315E-02  0.744249607474E-02  0.753180602764E-02
  0.762218769997E-02  0.771365395237E-02  0.780621779980E-02  0.789989241340E-02
  0.799469112236E-02  0.809062741583E-02  0.818771494482E-02  0.828596752416E-02
  0.838539913445E-02  0.848602392406E-02  0.858785621115E-02  0.869091048568E-02
  0.879520141151E-02  0.890074382845E-02  0.900755275439E-02  0.911564338744E-02
  0.922503110809E-02  0.933573148139E-02  0.944776025917E-02  0.956113338228E-02
  0.967586698286E-02  0.979197738666E-02  0.990948111530E-02  0.100283948887E-01
  0.101487356273E-01  0.102705204549E-01  0.103937667003E-01  0.105184919007E-01
  0.106447138035E-01  0.107724503692E-01  0.109017197736E-01  0.110325404109E-01
  0.111649308958E-01  0.112989100666E-01  0.114344969874E-01  0.115717109512E-01
  0.117105714826E-01  0.118510983404E-01  0.119933115205E-01  0.121372312588E-01
  0.122828780339E-01  0.124302725703E-01  0.125794358411E-01  0.127303890712E-01
  0.128831537401E-01  0.130377515850E-01  0.131942046040E-01  0.133525350592E-01
  0.135127654799E-01  0.136749186657E-01  0.138390176897E-01  0.140050859020E-01
  0.141731469328E-01  0.143432246960E-01  0.145153433923E-01  0.146895275130E-01
  0.148658018432E-01  0.150441914653E-01  0.152247217629E-01  0.154074184240E-01
  0.155923074451E-01  0.157794151345E-01  0.159687681161E-01  0.161603933335E-01
  0.163543180535E-01  0.165505698701E-01  0.167491767086E-01  0.169501668291E-01
  0.171535688310E-01  0.173594116570E-01  0.175677245969E-01  0.177785372920E-01
  0.179918797395E-01  0.182077822964E-01  0.184262756840E-01  0.186473909922E-01
  0.188711596841E-01  0.190976136003E-01  0.193267849635E-01  0.195587063831E-01
  0.197934108597E-01  0.200309317900E-01  0.202713029714E-01  0.205145586071E-01
  0.207607333104E-01  0.210098621101E-01  0.212619804554E-01  0.215171242209E-01
  0.217753297116E-01  0.220366336681E-01  0.223010732721E-01  0.225686861514E-01
  0.228395103852E-01  0.231135845098E-01  0.233909475239E-01  0.236716388942E-01
  0.239556985609E-01  0.242431669437E-01  0.245340849470E-01  0.248284939664E-01
  0.251264358940E-01  0.254279531247E-01  0.257330885622E-01  0.260418856249E-01
  0.263543882524E-01  0.266706409115E-01  0.269906886024E-01  0.273145768656E-01
  0.276423517880E-01  0.279740600095E-01  0.283097487296E-01  0.286494657143E-01
  0.289932593029E-01  0.293411784145E-01  0.296932725555E-01  0.300495918262E-01
  0.304101869281E-01  0.307751091712E-01  0.311444104813E-01  0.315181434071E-01
  0.318963611280E-01  0.322791174615E-01  0.326664668710E-01  0.330584644735E-01
  0.334551660472E-01  0.338566280397E-01  0.342629075762E-01  0.346740624671E-01
  0.350901512167E-01  0.355112330313E-01  0.359373678277E-01  0.363686162416E-01
  0.368050396365E-01  0.372467001122E-01  0.376936605135E-01  0.381459844397E-01
  0.386037362530E-01  0.390669810880E-01  0.395357848610E-01  0.400102142794E-01
  0.404903368507E-01  0.409762208929E-01  0.414679355437E-01  0.419655507702E-01
  0.424691373794E-01  0.429787670280E-01  0.434945122323E-01  0.440164463791E-01
  0.445446437357E-01  0.450791794605E-01  0.456201296140E-01  0.461675711694E-01
  0.467215820234E-01  0.472822410077E-01  0.478496278998E-01  0.484238234346E-01
  0.490049093158E-01  0.495929682276E-01  0.501880838463E-01  0.507903408525E-01
  0.513998249427E-01  0.520166228420E-01  0.526408223161E-01  0.532725121839E-01
  0.539117823301E-01  0.545587237181E-01  0.552134284027E-01  0.558759895435E-01
  0.565465014180E-01  0.572250594351E-01  0.579117601483E-01  0.586067012701E-01
  0.593099816853E-01  0.600217014655E-01  0.607419618831E-01  0.614708654257E-01
  0.622085158108E-01  0.629550180005E-01  0.637104782166E-01  0.644750039552E-01
  0.652487040026E-01  0.660316884506E-01  0.668240687121E-01  0.676259575366E-01
  0.684374690270E-01  0.692587186554E-01  0.700898232792E-01  0.709309011586E-01
  0.717820719725E-01  0.726434568361E-01  0.735151783182E-01  0.743973604580E-01
  0.752901287835E-01  0.761936103289E-01  0.771079336528E-01  0.780332288567E-01
  0.789696276030E-01  0.799172631342E-01  0.808762702918E-01  0.818467855353E-01
  0.828289469617E-01  0.838228943253E-01  0.848287690572E-01  0.858467142859E-01
  0.868768748573E-01  0.879193973556E-01  0.889744301238E-01  0.900421232853E-01
  0.911226287648E-01  0.922161003099E-01  0.933226935137E-01  0.944425658358E-01
  0.955758766258E-01  0.967227871454E-01  0.978834605911E-01  0.990580621182E-01
  0.100246758864E+00  0.101449719970E+00  0.102667116610E+00  0.103899122009E+00
  0.105145911473E+00  0.106407662411E+00  0.107684554360E+00  0.108976769012E+00
  0.110284490240E+00  0.111607904123E+00  0.112947198972E+00  0.114302565360E+00
  0.115674196144E+00  0.117062286498E+00  0.118467033936E+00  0.119888638343E+00
  0.121327302004E+00  0.122783229628E+00  0.124256628383E+00  0.125747707924E+00
  0.127256680419E+00  0.128783760584E+00  0.130329165711E+00  0.131893115699E+00
  0.133475833088E+00  0.135077543085E+00  0.136698473602E+00  0.138338855285E+00
  0.139998921548E+00  0.141678908607E+00  0.143379055510E+00  0.145099604176E+00
  0.146840799427E+00  0.148602889020E+00  0.150386123688E+00  0.152190757172E+00
  0.154017046258E+00  0.155865250813E+00  0.157735633823E+00  0.159628461429E+00
  0.161544002966E+00  0.163482531002E+00  0.165444321374E+00  0.167429653230E+00
  0.169438809069E+00  0.171472074778E+00  0.173529739675E+00  0.175612096551E+00
  0.177719441710E+00  0.179852075010E+00  0.182010299910E+00  0.184194423509E+00
  0.186404756592E+00  0.188641613671E+00  0.190905313035E+00  0.193196176791E+00
  0.195514530913E+00  0.197860705284E+00  0.200235033747E+00  0.202637854152E+00
  0.205069508402E+00  0.207530342503E+00  0.210020706613E+00  0.212540955092E+00
  0.215091446553E+00  0.217672543912E+00  0.220284614439E+00  0.222928029812E+00
  0.225603166170E+00  0.228310404164E+00  0.231050129014E+00  0.233822730562E+00
  0.236628603329E+00  0.239468146568E+00  0.242341764327E+00  0.245249865499E+00
  0.248192863885E+00  0.251171178252E+00  0.254185232391E+00  0.257235455180E+00
  0.260322280642E+00  0.263446148009E+00  0.266607501785E+00  0.269806791807E+00
  0.273044473309E+00  0.276321006988E+00  0.279636859072E+00  0.282992501381E+00
  0.286388411398E+00  0.289825072334E+00  0.293302973202E+00  0.296822608881E+00
  0.300384480187E+00  0.303989093950E+00  0.307636963077E+00  0.311328606634E+00
  0.315064549914E+00  0.318845324513E+00  0.322671468407E+00  0.326543526028E+00
  0.330462048340E+00  0.334427592920E+00  0.338440724035E+00  0.342502012723E+00
  0.346612036876E+00  0.350771381319E+00  0.354980637894E+00  0.359240405549E+00
  0.363551290416E+00  0.367913905901E+00  0.372328872772E+00  0.376796819245E+00
  0.381318381076E+00  0.385894201649E+00  0.390524932068E+00  0.395211231253E+00
  0.399953766028E+00  0.404753211221E+00  0.409610249755E+00  0.414525572752E+00
  0.419499879625E+00  0.424533878181E+00  0.429628284719E+00  0.434783824136E+00
  0.440001230025E+00  0.445281244786E+00  0.450624619723E+00  0.456032115160E+00
  0.461504500542E+00  0.467042554548E+00  0.472647065203E+00  0.478318829985E+00
  0.484058655945E+00  0.489867359816E+00  0.495745768134E+00  0.501694717352E+00
  0.507715053960E+00  0.513807634607E+00  0.519973326223E+00  0.526213006137E+00
  0.532527562211E+00  0.538917892958E+00  0.545384907673E+00  0.551929526565E+00
  0.558552680884E+00  0.565255313055E+00  0.572038376811E+00  0.578902837333E+00
  0.585849671381E+00  0.592879867438E+00  0.599994425847E+00  0.607194358957E+00
  0.614480691264E+00  0.621854459560E+00  0.629316713074E+00  0.636868513631E+00
  0.644510935795E+00  0.652245067024E+00  0.660072007829E+00  0.667992871923E+00
  0.676008786386E+00  0.684120891822E+00  0.692330342524E+00  0.700638306634E+00
  0.709045966314E+00  0.717554517910E+00  0.726165172125E+00  0.734879154190E+00
  0.743697704040E+00  0.752622076489E+00  0.761653541407E+00  0.770793383904E+00
  0.780042904511E+00  0.789403419365E+00  0.798876260397E+00  0.808462775522E+00
  0.818164328828E+00  0.827982300774E+00  0.837918088383E+00  0.847973105444E+00
  0.858148782709E+00  0.868446568102E+00  0.878867926919E+00  0.889414342042E+00
  0.900087314146E+00  0.910888361916E+00  0.921819022259E+00  0.932880850526E+00
  0.944075420733E+00  0.955404325781E+00  0.966869177691E+00  0.978471607823E+00
  0.990213267117E+00  0.100209582632E+01  0.101412097624E+01  0.102629042795E+01
  0.103860591309E+01  0.105106918405E+01  0.106368201425E+01  0.107644619843E+01
  0.108936355281E+01  0.110243591544E+01  0.111566514643E+01  0.112905312818E+01
  0.114260176572E+01  0.115631298691E+01  0.117018874275E+01  0.118423100767E+01
  0.119844177976E+01  0.121282308111E+01  0.122737695809E+01  0.124210548158E+01
  0.125701074736E+01  0.127209487633E+01  0.128736001485E+01  0.130280833503E+01
  0.131844203505E+01  0.133426333947E+01  0.135027449954E+01  0.136647779354E+01
  0.138287552706E+01  0.139947003338E+01  0.141626367378E+01  0.143325883787E+01
  0.145045794392E+01  0.146786343925E+01  0.148547780052E+01  0.150330353413E+01
  0.152134317654E+01  0.153959929465E+01  0.155807448619E+01  0.157677138003E+01
  0.159569263659E+01  0.161484094822E+01  0.163421903960E+01  0.165382966808E+01
  0.167367562410E+01  0.169375973158E+01  0.171408484836E+01  0.173465386654E+01
  0.175546971294E+01  0.177653534950E+01  0.179785377369E+01  0.181942801898E+01
  0.184126115520E+01  0.186335628907E+01  0.188571656453E+01  0.190834516331E+01
  0.193124530527E+01  0.195442024893E+01  0.197787329192E+01  0.200160777142E+01
  0.202562706468E+01  0.204993458946E+01  0.207453380453E+01  0.209942821018E+01
  0.212462134871E+01  0.215011680489E+01  0.217591820655E+01  0.220202922503E+01
  0.222845357573E+01  0.225519501864E+01  0.228225735886E+01  0.230964444717E+01
  0.233736018053E+01  0.236540850270E+01  0.239379340473E+01  0.242251892559E+01
  0.245158915270E+01  0.248100822253E+01  0.251078032120E+01  0.254090968505E+01
  0.257140060127E+01  0.260225740849E+01  0.263348449739E+01  0.266508631136E+01
  0.269706734709E+01  0.272943215526E+01  0.276218534112E+01  0.279533156522E+01
  0.282887554400E+01  0.286282205053E+01  0.289717591513E+01  0.293194202612E+01
  0.296712533043E+01  0.300273083439E+01  0.303876360441E+01  0.307522876766E+01
  0.311213151287E+01  0.314947709103E+01  0.318727081612E+01  0.322551806591E+01
  0.326422428270E+01  0.330339497409E+01  0.334303571378E+01  0.338315214235E+01
  0.342374996806E+01  0.346483496767E+01  0.350641298729E+01  0.354848994313E+01
  0.359107182245E+01  0.363416468432E+01  0.367777466053E+01  0.372190795646E+01
  0.376657085194E+01  0.381176970216E+01  0.385751093859E+01  0.390380106985E+01
  0.395064668269E+01  0.399805444288E+01  0.404603109619E+01  0.409458346935E+01
  0.414371847098E+01  0.419344309263E+01  0.424376440974E+01  0.429468958266E+01
  0.434622585765E+01  0.439838056794E+01  0.445116113476E+01  0.450457506838E+01
  0.455862996920E+01  0.461333352883E+01  0.466869353117E+01  0.472471785355E+01
  0.478141446779E+01  0.483879144140E+01  0.489685693870E+01  0.495561922196E+01
  0.501508665263E+01  0.507526769246E+01  0.513617090477E+01  0.519780495563E+01
  0.526017861509E+01  0.532330075848E+01  0.538718036758E+01  0.545182653199E+01
  0.551724845037E+01  0.558345543178E+01  0.565045689696E+01  0.571826237972E+01
  0.578688152828E+01  0.585632410662E+01  0.592659999590E+01  0.599771919585E+01
  0.606969182620E+01  0.614252812811E+01  0.621623846565E+01  0.629083332724E+01
  0.636632332716E+01  0.644271920709E+01  0.652003183757E+01  0.659827221963E+01
  0.667745148626E+01  0.675758090410E+01  0.683867187495E+01  0.692073593744E+01
  0.700378476869E+01  0.708783018592E+01  0.717288414815E+01  0.725895875793E+01
  0.734606626302E+01  0.743421905818E+01  0.752342968688E+01  0.761371084312E+01
  0.770507537324E+01  0.779753627772E+01  0.789110671305E+01  0.798579999360E+01
  0.808162959353E+01  0.817860914865E+01  0.827675245843E+01  0.837607348794E+01
  0.847658636979E+01  0.857830540623E+01  0.868124507110E+01  0.878542001196E+01
  0.889084505210E+01  0.899753519272E+01  0.910550561504E+01  0.921477168242E+01
  0.932534894261E+01  0.943725312992E+01  0.955050016748E+01  0.966510616949E+01
  0.978108744352E+01  0.989846049284E+01  0.100172420188E+02  0.101374489230E+02
  0.102590983101E+02  0.103822074898E+02  0.105067939797E+02  0.106328755074E+02
  0.107604700135E+02  0.108895956537E+02  0.110202708015E+02  0.111525140511E+02
  0.112863442197E+02  0.114217803504E+02  0.115588417146E+02  0.116975478152E+02
  0.118379183889E+02  0.119799734096E+02  0.121237330905E+02  0.122692178876E+02
  0.124164485023E+02  0.125654458843E+02  0.127162312349E+02  0.128688260097E+02
  0.130232519218E+02  0.131795309449E+02  0.133376853162E+02  0.134977375400E+02
  0.136597103905E+02  0.138236269152E+02  0.139895104382E+02  0.141573845634E+02
  0.143272731782E+02  0.144992004563E+02  0.146731908618E+02  0.148492691521E+02
  0.150274603820E+02  0.152077899066E+02  0.153902833854E+02  0.155749667861E+02
  0.157618663875E+02  0.159510087841E+02  0.161424208896E+02  0.163361299402E+02
  0.165321634995E+02  0.167305494615E+02  0.169313160550E+02  0.171344918477E+02
  0.173401057499E+02  0.175481870189E+02  0.177587652631E+02  0.179718704463E+02
  0.181875328916E+02  0.184057832863E+02  0.186266526858E+02  0.188501725180E+02
  0.190763745882E+02  0.193052910833E+02  0.195369545763E+02  0.197713980312E+02
  0.200086548075E+02  0.202487586652E+02  0.204917437692E+02  0.207376446944E+02
  0.209864964308E+02  0.212383343879E+02  0.214931944006E+02  0.217511127334E+02
  0.220121260862E+02  0.222762715992E+02  0.225435868584E+02  0.228141099007E+02
  0.230878792195E+02  0.233649337702E+02  0.236453129754E+02  0.239290567311E+02
  0.242162054119E+02  0.245067998768E+02  0.248008814754E+02  0.250984920531E+02
  0.253996739577E+02  0.257044700452E+02  0.260129236857E+02  0.263250787700E+02
  0.266409797152E+02  0.269606714718E+02  0.272841995295E+02  0.276116099238E+02
  0.279429492429E+02  0.282782646338E+02  0.286176038094E+02  0.289610150551E+02
  0.293085472358E+02  0.296602498026E+02  0.300161728003E+02  0.303763668739E+02
  0.307408832763E+02  0.311097738757E+02  0.314830911622E+02  0.318608882561E+02
  0.322432189152E+02  0.326301375422E+02  0.330216991927E+02  0.334179595830E+02
  0.338189750980E+02  0.342248027992E+02  0.346355004327E+02  0.350511264379E+02
  0.354717399552E+02  0.358974008347E+02  0.363281696447E+02  0.367641076804E+02
  0.372052769726E+02  0.376517402962E+02  0.381035611798E+02  0.385608039140E+02
  0.390235335609E+02  0.394918159637E+02  0.399657177552E+02  0.404453063683E+02
  0.409306500447E+02  0.414218178452E+02  0.419188796594E+02  0.424219062153E+02
  0.429309690899E+02  0.434461407190E+02  0.439674944076E+02
   </PP_R>
   <PP_RAB type="real"  size="1251" columns="4">
  0.175420159783E-06  0.177525201701E-06  0.179655504121E-06  0.181811370171E-06
  0.183993106613E-06  0.186201023892E-06  0.188435436179E-06  0.190696661413E-06
  0.192985021350E-06  0.195300841606E-06  0.197644451705E-06  0.200016185126E-06
  0.202416379347E-06  0.204845375900E-06  0.207303520410E-06  0.209791162655E-06
  0.212308656607E-06  0.214856360486E-06  0.217434636812E-06  0.220043852454E-06
  0.222684378683E-06  0.225356591228E-06  0.228060870322E-06  0.230797600766E-06
  0.233567171975E-06  0.236369978039E-06  0.239206417776E-06  0.242076894789E-06
  0.244981817526E-06  0.247921599337E-06  0.250896658529E-06  0.253907418431E-06
  0.256954307452E-06  0.260037759142E-06  0.263158212251E-06  0.266316110798E-06
  0.269511904128E-06  0.272746046978E-06  0.276018999541E-06  0.279331227536E-06
  0.282683202266E-06  0.286075400693E-06  0.289508305502E-06  0.292982405168E-06
  0.296498194030E-06  0.300056172358E-06  0.303656846426E-06  0.307300728583E-06
  0.310988337326E-06  0.314720197374E-06  0.318496839743E-06  0.322318801820E-06
  0.326186627442E-06  0.330100866971E-06  0.334062077375E-06  0.338070822303E-06
  0.342127672171E-06  0.346233204237E-06  0.350388002688E-06  0.354592658720E-06
  0.358847770625E-06  0.363153943872E-06  0.367511791198E-06  0.371921932693E-06
  0.376384995885E-06  0.380901615836E-06  0.385472435226E-06  0.390098104449E-06
  0.394779281702E-06  0.399516633082E-06  0.404310832679E-06  0.409162562671E-06
  0.414072513424E-06  0.419041383585E-06  0.424069880188E-06  0.429158718750E-06
  0.434308623375E-06  0.439520326855E-06  0.444794570778E-06  0.450132105627E-06
  0.455533690894E-06  0.461000095185E-06  0.466532096327E-06  0.472130481483E-06
  0.477796047261E-06  0.483529599828E-06  0.489331955026E-06  0.495203938487E-06
  0.501146385748E-06  0.507160142377E-06  0.513246064086E-06  0.519405016855E-06
  0.525637877057E-06  0.531945531582E-06  0.538328877961E-06  0.544788824496E-06
  0.551326290390E-06  0.557942205875E-06  0.564637512346E-06  0.571413162494E-06
  0.578270120444E-06  0.585209361889E-06  0.592231874232E-06  0.599338656722E-06