<UPF version="2.0.1">
  <PP_INFO>

 This pseudopotential file has been produced using the code
 ONCVPSP  (Optimized Norm-Conservinng Vanderbilt PSeudopotential)
 scalar-relativistic version 3.2.2 08/07/2015 by D. R. Hamann
 The code is available through a link at URL www.mat-simresearch.com.
 Documentation with the package provides a full discription of the
 input data below.


 While it is not required under the terms of the GNU GPL, it is
 suggested that you cite D. R. Hamann, Phys. Rev. B 88, 085117 (2013)
 in any publication using these pseudopotentials.

    <PP_INPUTFILE>
# ATOM AND REFERENCE CONFIGURATION
# atsym  z   nc   nv     iexc    psfile
  Bi 83.00   12    3       4      upf
#
#   n    l    f        energy (Ha)
    1    0    2.00
    2    0    2.00
    2    1    6.00
    3    0    2.00
    3    1    6.00
    3    2   10.00
    4    0    2.00
    4    1    6.00
    4    2   10.00
    4    3   14.00
    5    0    2.00
    5    1    6.00
    5    2   10.00
    6    0    2.00
    6    1    3.00
#
# PSEUDOPOTENTIAL AND OPTIMIZATION
# lmax
    3
#
#   l,   rc,     ep,   ncon, nbas, qcut
    0    3.01   -0.53    4    7    4.00
    1    3.01   -0.17    4    7    4.00
    2    2.52   -1.00    4    8    6.00
    3    3.01    0.25    4    8    5.00
#
# LOCAL POTENTIAL
# lloc, lpopt,  rc(5),   dvloc0
    4    3      2.52       0.00
#
# VANDERBILT-KLEINMAN-BYLANDER PROJECTORs
# l, nproj, debl
    0    2    1.0000
    1    2    1.0000
    2    2    1.2000
    3    2    1.0000
#
# MODEL CORE CHARGE
# icmod, fcfact
    1    0.25
#
# LOG DERIVATIVE ANALYSIS
# epsh1, epsh2, depsh
   -2.00    3.00    0.02
#
# OUTPUT GRID
# rlmax, drl
    7.00    0.01
#
# TEST CONFIGURATIONS
# ncnf
    3
# nvcnf
#   n    l    f
    3
    5    2   10.00
    6    0    1.00
    6    1    3.00
#
    3
    5    2   10.00
    6    0    2.00
    6    1    2.00
#
    3
    5    2   10.00
    6    0    1.00
    6    1    2.00
#
    </PP_INPUTFILE>
  </PP_INFO>
  <!--                               -->
  <!-- END OF HUMAN READABLE SECTION -->
  <!--                               -->
    <PP_HEADER
       generated="Generated using ONCVPSP code by D. R. Hamann"
       author="anonymous"
       date="221025"
       comment="Modified by Emil Briggs to output UPF format on log grid for RMG."
       element="Bi"
       pseudo_type="NC"
       relativistic="scalar"
       is_ultrasoft="F"
       is_paw="F"
       is_coulomb="F"
       has_so="F"
       has_wfc="F"
       has_gipaw="F"
       core_correction="T"
       functional="PBE"
       z_valence="   15.00"
       total_psenergy="  -1.37870890595E+02"
       rho_cutoff="   1.48900000000E+01"
       l_max="3"
       l_local="-1"
       mesh_size="  1326"
       number_of_wfc="3"
       number_of_proj="8"/>
 <PP_MESH>
   <PP_R type="real"  size="1326" columns="4">
  0.602409638554E-05  0.609638554217E-05  0.616954216867E-05  0.624357667470E-05
  0.631849959480E-05  0.639432158993E-05  0.647105344901E-05  0.654870609040E-05
  0.662729056348E-05  0.670681805025E-05  0.678729986685E-05  0.686874746525E-05
  0.695117243483E-05  0.703458650405E-05  0.711900154210E-05  0.720442956061E-05
  0.729088271533E-05  0.737837330792E-05  0.746691378761E-05  0.755651675306E-05
  0.764719495410E-05  0.773896129355E-05  0.783182882907E-05  0.792581077502E-05
  0.802092050432E-05  0.811717155037E-05  0.821457760898E-05  0.831315254029E-05
  0.841291037077E-05  0.851386529522E-05  0.861603167876E-05  0.871942405891E-05
  0.882405714761E-05  0.892994583338E-05  0.903710518339E-05  0.914555044559E-05
  0.925529705093E-05  0.936636061554E-05  0.947875694293E-05  0.959250202625E-05
  0.970761205056E-05  0.982410339517E-05  0.994199263591E-05  0.100612965475E-04
  0.101820321061E-04  0.103042164914E-04  0.104278670893E-04  0.105530014944E-04
  0.106796375123E-04  0.108077931624E-04  0.109374866804E-04  0.110687365205E-04
  0.112015613588E-04  0.113359800951E-04  0.114720118562E-04  0.116096759985E-04
  0.117489921105E-04  0.118899800158E-04  0.120326597760E-04  0.121770516933E-04
  0.123231763136E-04  0.124710544294E-04  0.126207070826E-04  0.127721555676E-04
  0.129254214344E-04  0.130805264916E-04  0.132374928095E-04  0.133963427232E-04
  0.135570988359E-04  0.137197840219E-04  0.138844214302E-04  0.140510344873E-04
  0.142196469012E-04  0.143902826640E-04  0.145629660559E-04  0.147377216486E-04
  0.149145743084E-04  0.150935492001E-04  0.152746717905E-04  0.154579678520E-04
  0.156434634662E-04  0.158311850278E-04  0.160211592481E-04  0.162134131591E-04
  0.164079741170E-04  0.166048698064E-04  0.168041282441E-04  0.170057777830E-04
  0.172098471164E-04  0.174163652818E-04  0.176253616652E-04  0.178368660052E-04
  0.180509083973E-04  0.182675192980E-04  0.184867295296E-04  0.187085702840E-04
  0.189330731274E-04  0.191602700049E-04  0.193901932450E-04  0.196228755639E-04
  0.198583500707E-04  0.200966502715E-04  0.203378100748E-04  0.205818637957E-04
  0.208288461612E-04  0.210787923152E-04  0.213317378229E-04  0.215877186768E-04
  0.218467713009E-04  0.221089325565E-04  0.223742397472E-04  0.226427306242E-04
  0.229144433917E-04  0.231894167124E-04  0.234676897129E-04  0.237493019895E-04
  0.240342936134E-04  0.243227051367E-04  0.246145775984E-04  0.249099525295E-04
  0.252088719599E-04  0.255113784234E-04  0.258175149645E-04  0.261273251441E-04
  0.264408530458E-04  0.267581432823E-04  0.270792410017E-04  0.274041918937E-04
  0.277330421965E-04  0.280658387028E-04  0.284026287673E-04  0.287434603125E-04
  0.290883818362E-04  0.294374424183E-04  0.297906917273E-04  0.301481800280E-04
  0.305099581883E-04  0.308760776866E-04  0.312465906188E-04  0.316215497063E-04
  0.320010083027E-04  0.323850204024E-04  0.327736406472E-04  0.331669243350E-04
  0.335649274270E-04  0.339677065561E-04  0.343753190348E-04  0.347878228632E-04
  0.352052767376E-04  0.356277400584E-04  0.360552729391E-04  0.364879362144E-04
  0.369257914490E-04  0.373689009463E-04  0.378173277577E-04  0.382711356908E-04
  0.387303893191E-04  0.391951539909E-04  0.396654958388E-04  0.401414817889E-04
  0.406231795703E-04  0.411106577252E-04  0.416039856179E-04  0.421032334453E-04
  0.426084722466E-04  0.431197739136E-04  0.436372112006E-04  0.441608577350E-04
  0.446907880278E-04  0.452270774841E-04  0.457698024139E-04  0.463190400429E-04
  0.468748685234E-04  0.474373669457E-04  0.480066153490E-04  0.485826947332E-04
  0.491656870700E-04  0.497556753149E-04  0.503527434186E-04  0.509569763397E-04
  0.515684600557E-04  0.521872815764E-04  0.528135289553E-04  0.534472913028E-04
  0.540886587984E-04  0.547377227040E-04  0.553945753765E-04  0.560593102810E-04
  0.567320220043E-04  0.574128062684E-04  0.581017599436E-04  0.587989810629E-04
  0.595045688357E-04  0.602186236617E-04  0.609412471457E-04  0.616725421114E-04
  0.624126126168E-04  0.631615639682E-04  0.639195027358E-04  0.646865367686E-04
  0.654627752098E-04  0.662483285123E-04  0.670433084545E-04  0.678478281559E-04
  0.686620020938E-04  0.694859461189E-04  0.703197774724E-04  0.711636148020E-04
  0.720175781797E-04  0.728817891178E-04  0.737563705872E-04  0.746414470343E-04
  0.755371443987E-04  0.764435901315E-04  0.773609132130E-04  0.782892441716E-04
  0.792287151017E-04  0.801794596829E-04  0.811416131991E-04  0.821153125575E-04
  0.831006963082E-04  0.840979046639E-04  0.851070795198E-04  0.861283644741E-04
  0.871619048477E-04  0.882078477059E-04  0.892663418784E-04  0.903375379809E-04
  0.914215884367E-04  0.925186474979E-04  0.936288712679E-04  0.947524177231E-04
  0.958894467358E-04  0.970401200966E-04  0.982046015378E-04  0.993830567563E-04
  0.100575653437E-03  0.101782561279E-03  0.103003952014E-03  0.104239999438E-03
  0.105490879431E-03  0.106756769985E-03  0.108037851224E-03  0.109334305439E-03
  0.110646317104E-03  0.111974072910E-03  0.113317761784E-03  0.114677574926E-03
  0.116053705825E-03  0.117446350295E-03  0.118855706498E-03  0.120281974976E-03
  0.121725358676E-03  0.123186062980E-03  0.124664295736E-03  0.126160267285E-03
  0.127674190492E-03  0.129206280778E-03  0.130756756147E-03  0.132325837221E-03
  0.133913747268E-03  0.135520712235E-03  0.137146960782E-03  0.138792724311E-03
  0.140458237003E-03  0.142143735847E-03  0.143849460677E-03  0.145575654205E-03
  0.147322562056E-03  0.149090432801E-03  0.150879517994E-03  0.152690072210E-03
  0.154522353077E-03  0.156376621314E-03  0.158253140769E-03  0.160152178459E-03
  0.162074004600E-03  0.164018892655E-03  0.165987119367E-03  0.167978964799E-03
  0.169994712377E-03  0.172034648926E-03  0.174099064713E-03  0.176188253489E-03
  0.178302512531E-03  0.180442142682E-03  0.182607448394E-03  0.184798737774E-03
  0.187016322628E-03  0.189260518499E-03  0.191531644721E-03  0.193830024458E-03
  0.196155984751E-03  0.198509856568E-03  0.200891974847E-03  0.203302678545E-03
  0.205742310688E-03  0.208211218416E-03  0.210709753037E-03  0.213238270074E-03
  0.215797129314E-03  0.218386694866E-03  0.221007335205E-03  0.223659423227E-03
  0.226343336306E-03  0.229059456342E-03  0.231808169818E-03  0.234589867855E-03
  0.237404946270E-03  0.240253805625E-03  0.243136851292E-03  0.246054493508E-03
  0.249007147430E-03  0.251995233199E-03  0.255019175998E-03  0.258079406110E-03
  0.261176358983E-03  0.264310475291E-03  0.267482200994E-03  0.270691987406E-03
  0.273940291255E-03  0.277227574750E-03  0.280554305647E-03  0.283920957315E-03
  0.287328008803E-03  0.290775944908E-03  0.294265256247E-03  0.297796439322E-03
  0.301369996594E-03  0.304986436553E-03  0.308646273792E-03  0.312350029077E-03
  0.316098229426E-03  0.319891408179E-03  0.323730105077E-03  0.327614866338E-03
  0.331546244734E-03  0.335524799671E-03  0.339551097267E-03  0.343625710434E-03
  0.347749218960E-03  0.351922209587E-03  0.356145276102E-03  0.360419019415E-03
  0.364744047648E-03  0.369120976220E-03  0.373550427935E-03  0.378033033070E-03
  0.382569429467E-03  0.387160262620E-03  0.391806185772E-03  0.396507860001E-03
  0.401265954321E-03  0.406081145773E-03  0.410954119522E-03  0.415885568957E-03
  0.420876195784E-03  0.425926710134E-03  0.431037830655E-03  0.436210284623E-03
  0.441444808038E-03  0.446742145735E-03  0.452103051484E-03  0.457528288102E-03
  0.463018627559E-03  0.468574851089E-03  0.474197749303E-03  0.479888122294E-03
  0.485646779762E-03  0.491474541119E-03  0.497372235612E-03  0.503340702440E-03
  0.509380790869E-03  0.515493360359E-03  0.521679280684E-03  0.527939432052E-03
  0.534274705236E-03  0.540686001699E-03  0.547174233720E-03  0.553740324524E-03
  0.560385208419E-03  0.567109830920E-03  0.573915148891E-03  0.580802130677E-03
  0.587771756245E-03  0.594825017320E-03  0.601962917528E-03  0.609186472539E-03
  0.616496710209E-03  0.623894670732E-03  0.631381406780E-03  0.638957983662E-03
  0.646625479466E-03  0.654384985219E-03  0.662237605042E-03  0.670184456302E-03
  0.678226669778E-03  0.686365389815E-03  0.694601774493E-03  0.702936995787E-03
  0.711372239736E-03  0.719908706613E-03  0.728547611093E-03  0.737290182426E-03
  0.746137664615E-03  0.755091316590E-03  0.764152412389E-03  0.773322241338E-03
  0.782602108234E-03  0.791993333533E-03  0.801497253535E-03  0.811115220578E-03
  0.820848603225E-03  0.830698786463E-03  0.840667171901E-03  0.850755177964E-03
  0.860964240099E-03  0.871295810980E-03  0.881751360712E-03  0.892332377041E-03
  0.903040365565E-03  0.913876849952E-03  0.924843372152E-03  0.935941492617E-03
  0.947172790529E-03  0.958538864015E-03  0.970041330383E-03  0.981681826348E-03
  0.993462008264E-03  0.100538355236E-02  0.101744815499E-02  0.102965753285E-02
  0.104201342325E-02  0.105451758432E-02  0.106717179534E-02  0.107997785688E-02
  0.109293759116E-02  0.110605284226E-02  0.111932547636E-02  0.113275738208E-02
  0.114635047067E-02  0.116010667631E-02  0.117402795643E-02  0.118811629191E-02
  0.120237368741E-02  0.121680217166E-02  0.123140379772E-02  0.124618064329E-02
  0.126113481101E-02  0.127626842874E-02  0.129158364989E-02  0.130708265369E-02
  0.132276764553E-02  0.133864085728E-02  0.135470454756E-02  0.137096100213E-02
  0.138741253416E-02  0.140406148457E-02  0.142091022238E-02  0.143796114505E-02
  0.145521667879E-02  0.147267927894E-02  0.149035143029E-02  0.150823564745E-02
  0.152633447522E-02  0.154465048892E-02  0.156318629479E-02  0.158194453033E-02
  0.160092786469E-02  0.162013899907E-02  0.163958066706E-02  0.165925563506E-02
  0.167916670268E-02  0.169931670311E-02  0.171970850355E-02  0.174034500559E-02
  0.176122914566E-02  0.178236389541E-02  0.180375226215E-02  0.182539728930E-02
  0.184730205677E-02  0.186946968145E-02  0.189190331763E-02  0.191460615744E-02
  0.193758143133E-02  0.196083240851E-02  0.198436239741E-02  0.200817474618E-02
  0.203227284313E-02  0.205666011725E-02  0.208134003866E-02  0.210631611912E-02
  0.213159191255E-02  0.215717101550E-02  0.218305706769E-02  0.220925375250E-02
  0.223576479753E-02  0.226259397510E-02  0.228974510280E-02  0.231722204403E-02
  0.234502870856E-02  0.237316905306E-02  0.240164708170E-02  0.243046684668E-02
  0.245963244884E-02  0.248914803823E-02  0.251901781469E-02  0.254924602846E-02
  0.257983698080E-02  0.261079502457E-02  0.264212456487E-02  0.267383005965E-02
  0.270591602036E-02  0.273838701261E-02  0.277124765676E-02  0.280450262864E-02
  0.283815666018E-02  0.287221454011E-02  0.290668111459E-02  0.294156128796E-02
  0.297686002342E-02  0.301258234370E-02  0.304873333182E-02  0.308531813181E-02
  0.312234194939E-02  0.315981005278E-02  0.319772777341E-02  0.323610050669E-02
  0.327493371277E-02  0.331423291733E-02  0.335400371234E-02  0.339425175688E-02
  0.343498277797E-02  0.347620257130E-02  0.351791700216E-02  0.356013200618E-02
  0.360285359026E-02  0.364608783334E-02  0.368984088734E-02  0.373411897799E-02
  0.377892840572E-02  0.382427554659E-02  0.387016685315E-02  0.391660885539E-02
  0.396360816165E-02  0.401117145959E-02  0.405930551711E-02  0.410801718331E-02
  0.415731338951E-02  0.420720115019E-02  0.425768756399E-02  0.430877981476E-02
  0.436048517254E-02  0.441281099461E-02  0.446576472654E-02  0.451935390326E-02
  0.457358615010E-02  0.462846918390E-02  0.468401081411E-02  0.474021894388E-02
  0.479710157120E-02  0.485466679006E-02  0.491292279154E-02  0.497187786504E-02
  0.503154039942E-02  0.509191888421E-02  0.515302191082E-02  0.521485817375E-02
  0.527743647184E-02  0.534076570950E-02  0.540485489801E-02  0.546971315679E-02
  0.553534971467E-02  0.560177391125E-02  0.566899519818E-02  0.573702314056E-02
  0.580586741825E-02  0.587553782726E-02  0.594604428119E-02  0.601739681257E-02
  0.608960557432E-02  0.616268084121E-02  0.623663301130E-02  0.631147260744E-02
  0.638721027873E-02  0.646385680207E-02  0.654142308370E-02  0.661992016070E-02
  0.669935920263E-02  0.677975151306E-02  0.686110853122E-02  0.694344183359E-02
  0.702676313560E-02  0.711108429322E-02  0.719641730474E-02  0.728277431240E-02
  0.737016760415E-02  0.745860961540E-02  0.754811293078E-02  0.763869028595E-02
  0.773035456938E-02  0.782311882422E-02  0.791699625011E-02  0.801200020511E-02
  0.810814420757E-02  0.820544193806E-02  0.830390724132E-02  0.840355412821E-02
  0.850439677775E-02  0.860644953908E-02  0.870972693355E-02  0.881424365675E-02
  0.892001458064E-02  0.902705475560E-02  0.913537941267E-02  0.924500396562E-02
  0.935594401321E-02  0.946821534137E-02  0.958183392547E-02  0.969681593257E-02
  0.981317772376E-02  0.993093585645E-02  0.100501070867E-01  0.101707083718E-01
  0.102927568722E-01  0.104162699547E-01  0.105412651941E-01  0.106677603765E-01
  0.107957735010E-01  0.109253227830E-01  0.110564266564E-01  0.111891037763E-01
  0.113233730216E-01  0.114592534979E-01  0.115967645398E-01  0.117359257143E-01
  0.118767568229E-01  0.120192779048E-01  0.121635092396E-01  0.123094713505E-01
  0.124571850067E-01  0.126066712268E-01  0.127579512815E-01  0.129110466969E-01
  0.130659792572E-01  0.132227710083E-01  0.133814442604E-01  0.135420215915E-01
  0.137045258506E-01  0.138689801609E-01  0.140354079228E-01  0.142038328179E-01
  0.143742788117E-01  0.145467701574E-01  0.147213313993E-01  0.148979873761E-01
  0.150767632246E-01  0.152576843833E-01  0.154407765959E-01  0.156260659151E-01
  0.158135787060E-01  0.160033416505E-01  0.161953817503E-01  0.163897263313E-01
  0.165864030473E-01  0.167854398839E-01  0.169868651625E-01  0.171907075444E-01
  0.173969960349E-01  0.176057599874E-01  0.178170291072E-01  0.180308334565E-01
  0.182472034580E-01  0.184661698995E-01  0.186877639383E-01  0.189120171055E-01
  0.191389613108E-01  0.193686288465E-01  0.196010523927E-01  0.198362650214E-01
  0.200743002016E-01  0.203151918041E-01  0.205589741057E-01  0.208056817950E-01
  0.210553499765E-01  0.213080141762E-01  0.215637103464E-01  0.218224748705E-01
  0.220843445690E-01  0.223493567038E-01  0.226175489842E-01  0.228889595720E-01
  0.231636270869E-01  0.234415906120E-01  0.237228896993E-01  0.240075643757E-01
  0.242956551482E-01  0.245872030100E-01  0.248822494461E-01  0.251808364394E-01
  0.254830064767E-01  0.257888025544E-01  0.260982681851E-01  0.264114474033E-01
  0.267283847722E-01  0.270491253894E-01  0.273737148941E-01  0.277021994728E-01
  0.280346258665E-01  0.283710413769E-01  0.287114938734E-01  0.290560317999E-01
  0.294047041815E-01  0.297575606317E-01  0.301146513593E-01  0.304760271756E-01
  0.308417395017E-01  0.312118403757E-01  0.315863824602E-01  0.319654190497E-01
  0.323490040783E-01  0.327371921273E-01  0.331300384328E-01  0.335275988940E-01
  0.339299300807E-01  0.343370892417E-01  0.347491343126E-01  0.351661239243E-01
  0.355881174114E-01  0.360151748204E-01  0.364473569182E-01  0.368847252012E-01
  0.373273419036E-01  0.377752700065E-01  0.382285732466E-01  0.386873161255E-01
  0.391515639190E-01  0.396213826861E-01  0.400968392783E-01  0.405780013496E-01
  0.410649373658E-01  0.415577166142E-01  0.420564092136E-01  0.425610861241E-01
  0.430718191576E-01  0.435886809875E-01  0.441117451594E-01  0.446410861013E-01
  0.451767791345E-01  0.457189004841E-01  0.462675272899E-01  0.468227376174E-01
  0.473846104688E-01  0.479532257944E-01  0.485286645040E-01  0.491110084780E-01
  0.497003405798E-01  0.502967446667E-01  0.509003056027E-01  0.515111092699E-01
  0.521292425812E-01  0.527547934922E-01  0.533878510141E-01  0.540285052262E-01
  0.546768472889E-01  0.553329694564E-01  0.559969650899E-01  0.566689286710E-01
  0.573489558150E-01  0.580371432848E-01  0.587335890042E-01  0.594383920723E-01
  0.601516527771E-01  0.608734726105E-01  0.616039542818E-01  0.623432017332E-01
  0.630913201540E-01  0.638484159958E-01  0.646145969878E-01  0.653899721516E-01
  0.661746518174E-01  0.669687476392E-01  0.677723726109E-01  0.685856410822E-01
  0.694086687752E-01  0.702415728005E-01  0.710844716741E-01  0.719374853342E-01
  0.728007351582E-01  0.736743439801E-01  0.745584361079E-01  0.754531373412E-01
  0.763585749893E-01  0.772748778892E-01  0.782021764238E-01  0.791406025409E-01
  0.800902897714E-01  0.810513732487E-01  0.820239897277E-01  0.830082776044E-01
  0.840043769356E-01  0.850124294589E-01  0.860325786124E-01  0.870649695557E-01
  0.881097491904E-01  0.891670661807E-01  0.902370709748E-01  0.913199158265E-01
  0.924157548165E-01  0.935247438743E-01  0.946470408008E-01  0.957828052904E-01
  0.969321989538E-01  0.980953853413E-01  0.992725299654E-01  0.100463800325E+00
  0.101669365929E+00  0.102889398320E+00  0.104124071100E+00  0.105373559953E+00
  0.106638042672E+00  0.107917699185E+00  0.109212711575E+00  0.110523264114E+00
  0.111849543283E+00  0.113191737802E+00  0.114550038656E+00  0.115924639120E+00
  0.117315734789E+00  0.118723523607E+00  0.120148205890E+00  0.121589984361E+00
  0.123049064173E+00  0.124525652943E+00  0.126019960779E+00  0.127532200308E+00
  0.129062586712E+00  0.130611337752E+00  0.132178673805E+00  0.133764817891E+00
  0.135369995705E+00  0.136994435654E+00  0.138638368882E+00  0.140302029308E+00
  0.141985653660E+00  0.143689481504E+00  0.145413755282E+00  0.147158720345E+00
  0.148924624990E+00  0.150711720489E+00  0.152520261135E+00  0.154350504269E+00
  0.156202710320E+00  0.158077142844E+00  0.159974068558E+00  0.161893757381E+00
  0.163836482469E+00  0.165802520259E+00  0.167792150502E+00  0.169805656308E+00
  0.171843324184E+00  0.173905444074E+00  0.175992309403E+00  0.178104217116E+00
  0.180241467721E+00  0.182404365334E+00  0.184593217718E+00  0.186808336330E+00
  0.189050036366E+00  0.191318636803E+00  0.193614460444E+00  0.195937833970E+00
  0.198289087977E+00  0.200668557033E+00  0.203076579718E+00  0.205513498674E+00
  0.207979660658E+00  0.210475416586E+00  0.213001121585E+00  0.215557135044E+00
  0.218143820665E+00  0.220761546513E+00  0.223410685071E+00  0.226091613292E+00
  0.228804712651E+00  0.231550369203E+00  0.234328973634E+00  0.237140921317E+00
  0.239986612373E+00  0.242866451721E+00  0.245780849142E+00  0.248730219332E+00
  0.251714981964E+00  0.254735561747E+00  0.257792388488E+00  0.260885897150E+00
  0.264016527916E+00  0.267184726251E+00  0.270390942966E+00  0.273635634282E+00
  0.276919261893E+00  0.280242293036E+00  0.283605200552E+00  0.287008462959E+00
  0.290452564514E+00  0.293937995288E+00  0.297465251232E+00  0.301034834247E+00
  0.304647252258E+00  0.308303019285E+00  0.312002655516E+00  0.315746687382E+00
  0.319535647631E+00  0.323370075402E+00  0.327250516307E+00  0.331177522503E+00
  0.335151652773E+00  0.339173472606E+00  0.343243554277E+00  0.347362476929E+00
  0.351530826652E+00  0.355749196572E+00  0.360018186931E+00  0.364338405174E+00
  0.368710466036E+00  0.373134991628E+00  0.377612611528E+00  0.382143962866E+00
  0.386729690421E+00  0.391370446706E+00  0.396066892066E+00  0.400819694771E+00
  0.405629531108E+00  0.410497085481E+00  0.415423050507E+00  0.420408127113E+00
  0.425453024639E+00  0.430558460934E+00  0.435725162466E+00  0.440953864415E+00
  0.446245310788E+00  0.451600254518E+00  0.457019457572E+00  0.462503691063E+00
  0.468053735355E+00  0.473670380180E+00  0.479354424742E+00  0.485106677839E+00
  0.490927957973E+00  0.496819093468E+00  0.502780922590E+00  0.508814293661E+00
  0.514920065185E+00  0.521099105967E+00  0.527352295239E+00  0.533680522782E+00
  0.540084689055E+00  0.546565705324E+00  0.553124493788E+00  0.559761987713E+00
  0.566479131566E+00  0.573276881145E+00  0.580156203718E+00  0.587118078163E+00
  0.594163495101E+00  0.601293457042E+00  0.608508978527E+00  0.615811086269E+00
  0.623200819304E+00  0.630679229136E+00  0.638247379885E+00  0.645906348444E+00
  0.653657224625E+00  0.661501111321E+00  0.669439124657E+00  0.677472394153E+00
  0.685602062882E+00  0.693829287637E+00  0.702155239089E+00  0.710581101958E+00
  0.719108075181E+00  0.727737372083E+00  0.736470220548E+00  0.745307863195E+00
  0.754251557553E+00  0.763302576244E+00  0.772462207159E+00  0.781731753645E+00
  0.791112534688E+00  0.800605885105E+00  0.810213155726E+00  0.819935713595E+00
  0.829774942158E+00  0.839732241464E+00  0.849809028361E+00  0.860006736702E+00
  0.870326817542E+00  0.880770739353E+00  0.891339988225E+00  0.902036068084E+00
  0.912860500901E+00  0.923814826911E+00  0.934900604834E+00  0.946119412092E+00
  0.957472845037E+00  0.968962519178E+00  0.980590069408E+00  0.992357150241E+00
  0.100426543604E+01  0.101631662128E+01  0.102851242073E+01  0.104085456978E+01
  0.105334482462E+01  0.106598496251E+01  0.107877678206E+01  0.109172210345E+01
  0.110482276869E+01  0.111808064191E+01  0.113149760962E+01  0.114507558093E+01
  0.115881648790E+01  0.117272228576E+01  0.118679495319E+01  0.120103649263E+01
  0.121544893054E+01  0.123003431770E+01  0.124479472952E+01  0.125973226627E+01
  0.127484905347E+01  0.129014724211E+01  0.130562900901E+01  0.132129655712E+01
  0.133715211581E+01  0.135319794120E+01  0.136943631649E+01  0.138586955229E+01
  0.140249998692E+01  0.141932998676E+01  0.143636194660E+01  0.145359828996E+01
  0.147104146944E+01  0.148869396707E+01  0.150655829468E+01  0.152463699421E+01
  0.154293263814E+01  0.156144782980E+01  0.158018520376E+01  0.159914742620E+01
  0.161833719532E+01  0.163775724166E+01  0.165741032856E+01  0.167729925250E+01
  0.169742684353E+01  0.171779596566E+01  0.173840951724E+01  0.175927043145E+01
  0.178038167663E+01  0.180174625675E+01  0.182336721183E+01  0.184524761837E+01
  0.186739058979E+01  0.188979927687E+01  0.191247686819E+01  0.193542659061E+01
  0.195865170970E+01  0.198215553021E+01  0.200594139658E+01  0.203001269333E+01
  0.205437284565E+01  0.207902531980E+01  0.210397362364E+01  0.212922130712E+01
  0.215477196281E+01  0.218062922636E+01  0.220679677708E+01  0.223327833840E+01
  0.226007767847E+01  0.228719861061E+01  0.231464499393E+01  0.234242073386E+01
  0.237052978267E+01  0.239897614006E+01  0.242776385374E+01  0.245689701999E+01
  0.248637978423E+01  0.251621634164E+01  0.254641093774E+01  0.257696786899E+01
  0.260789148342E+01  0.263918618122E+01  0.267085641539E+01  0.270290669238E+01
  0.273534157269E+01  0.276816567156E+01  0.280138365962E+01  0.283500026353E+01
  0.286902026669E+01  0.290344850989E+01  0.293828989201E+01  0.297354937072E+01
  0.300923196317E+01  0.304534274672E+01  0.308188685968E+01  0.311886950200E+01
  0.315629593602E+01  0.319417148726E+01  0.323250154510E+01  0.327129156365E+01
  0.331054706241E+01  0.335027362716E+01  0.339047691068E+01  0.343116263361E+01
  0.347233658522E+01  0.351400462424E+01  0.355617267973E+01  0.359884675189E+01
  0.364203291291E+01  0.368573730786E+01  0.372996615556E+01  0.377472574942E+01
  0.382002245842E+01  0.386586272792E+01  0.391225308065E+01  0.395920011762E+01
  0.400671051903E+01  0.405479104526E+01  0.410344853780E+01  0.415268992026E+01
  0.420252219930E+01  0.425295246569E+01  0.430398789528E+01  0.435563575002E+01
  0.440790337902E+01  0.446079821957E+01  0.451432779821E+01  0.456849973179E+01
  0.462332172857E+01  0.467880158931E+01  0.473494720838E+01  0.479176657488E+01
  0.484926777378E+01  0.490745898707E+01  0.496634849491E+01  0.502594467685E+01
  0.508625601297E+01  0.514729108513E+01  0.520905857815E+01  0.527156728109E+01
  0.533482608846E+01  0.539884400152E+01  0.546363012954E+01  0.552919369109E+01
  0.559554401539E+01  0.566269054357E+01  0.573064283010E+01  0.579941054406E+01
  0.586900347059E+01  0.593943151223E+01  0.601070469038E+01  0.608283314666E+01
  0.615582714442E+01  0.622969707016E+01  0.630445343500E+01  0.638010687622E+01
  0.645666815873E+01  0.653414817664E+01  0.661255795476E+01  0.669190865021E+01
  0.677221155402E+01  0.685347809267E+01  0.693571982978E+01  0.701894846773E+01
  0.710317584935E+01  0.718841395954E+01  0.727467492705E+01  0.736197102618E+01
  0.745031467849E+01  0.753971845463E+01  0.763019507609E+01  0.772175741700E+01
  0.781441850601E+01  0.790819152808E+01  0.800308982642E+01  0.809912690433E+01
  0.819631642719E+01  0.829467222431E+01  0.839420829100E+01  0.849493879050E+01
  0.859687805598E+01  0.870004059265E+01  0.880444107977E+01  0.891009437272E+01
  0.901701550520E+01  0.912521969126E+01  0.923472232755E+01  0.934553899548E+01
  0.945768546343E+01  0.957117768899E+01  0.968603182126E+01  0.980226420311E+01
  0.991989137355E+01  0.100389300700E+02  0.101593972309E+02  0.102813099976E+02
  0.104046857176E+02  0.105295419462E+02  0.106558964496E+02  0.107837672070E+02
  0.109131724135E+02  0.110441304824E+02  0.111766600482E+02  0.113107799688E+02
  0.114465093284E+02  0.115838674404E+02  0.117228738496E+02  0.118635483358E+02
  0.120059109159E+02  0.121499818469E+02  0.122957816290E+02  0.124433310086E+02
  0.125926509807E+02  0.127437627924E+02  0.128966879459E+02  0.130514482013E+02
  0.132080655797E+02  0.133665623667E+02  0.135269611151E+02  0.136892846485E+02
  0.138535560642E+02  0.140197987370E+02  0.141880363218E+02  0.143582927577E+02
  0.145305922708E+02  0.147049593781E+02  0.148814188906E+02  0.150599959173E+02
  0.152407158683E+02  0.154236044587E+02  0.156086877122E+02  0.157959919648E+02
  0.159855438683E+02  0.161773703948E+02  0.163714988395E+02  0.165679568256E+02
  0.167667723075E+02  0.169679735752E+02  0.171715892581E+02  0.173776483292E+02
  0.175861801091E+02  0.177972142704E+02  0.180107808417E+02  0.182269102118E+02
  0.184456331343E+02  0.186669807319E+02  0.188909845007E+02  0.191176763147E+02
  0.193470884305E+02  0.195792534916E+02  0.198142045335E+02  0.200519749879E+02
  0.202925986878E+02  0.205361098721E+02  0.207825431905E+02  0.210319337088E+02
  0.212843169133E+02  0.215397287163E+02  0.217982054609E+02  0.220597839264E+02
  0.223245013335E+02  0.225923953495E+02  0.228635040937E+02  0.231378661428E+02
  0.234155205366E+02  0.236965067830E+02  0.239808648644E+02  0.242686352428E+02
  0.245598588657E+02  0.248545771721E+02  0.251528320981E+02  0.254546660833E+02
  0.257601220763E+02  0.260692435412E+02  0.263820744637E+02  0.266986593573E+02
  0.270190432696E+02  0.273432717888E+02  0.276713910503E+02  0.280034477429E+02
  0.283394891158E+02  0.286795629852E+02  0.290237177410E+02  0.293720023539E+02
  0.297244663821E+02  0.300811599787E+02  0.304421338985E+02  0.308074395052E+02
  0.311771287793E+02  0.315512543247E+02  0.319298693766E+02  0.323130278091E+02
  0.327007841428E+02  0.330931935525E+02  0.334903118751E+02  0.338921956176E+02
  0.342989019650E+02  0.347104887886E+02  0.351270146541E+02  0.355485388299E+02
  0.359751212959E+02  0.364068227514E+02  0.368437046245E+02  0.372858290800E+02
  0.377332590289E+02  0.381860581373E+02  0.386442908349E+02  0.391080223249E+02
  0.395773185928E+02  0.400522464159E+02  0.405328733729E+02  0.410192678534E+02
  0.415114990676E+02  0.420096370565E+02  0.425137527011E+02  0.430239177335E+02
  0.435402047463E+02  0.440626872033E+02
   </PP_R>
   <PP_RAB type="real"  size="1326" columns="4">
  0.718588606342E-07  0.727211669618E-07  0.735938209653E-07  0.744769468169E-07
  0.753706701787E-07  0.762751182209E-07  0.771904196395E-07  0.781167046752E-07
  0.790541051313E-07  0.800027543929E-07  0.809627874456E-07  0.819343408949E-07